
                                 *****************
                                 * O   R   C   A *
                                 *****************

           --- An Ab Initio, DFT and Semiempirical electronic structure package ---

                  #######################################################
                  #                        -***-                        #
                  #  Department of molecular theory and spectroscopy    #
                  #              Directorship: Frank Neese              #
                  # Max Planck Institute for Chemical Energy Conversion #
                  #                  D-45470 Muelheim/Ruhr              #
                  #                       Germany                       #
                  #                                                     #
                  #                  All rights reserved                #
                  #                        -***-                        #
                  #######################################################


                         Program Version 4.0.1.2 - RELEASE -


 With contributions from (in alphabetic order):
   Daniel Aravena         : Magnetic Properties
   Michael Atanasov       : Ab Initio Ligand Field Theory
   Ute Becker             : Parallelization
   Martin Brehm           : Molecular dynamics
   Dmytro Bykov           : SCF Hessian
   Vijay G. Chilkuri      : MRCI spin determinant printing
   Dipayan Datta          : RHF DLPNO-CCSD density
   Achintya Kumar Dutta   : EOM-CC, STEOM-CC
   Dmitry Ganyushin       : Spin-Orbit,Spin-Spin,Magnetic field MRCI
   Yang Guo               : DLPNO-NEVPT2, CIM, IAO-localization
   Andreas Hansen         : Spin unrestricted coupled pair/coupled cluster methods
   Lee Huntington         : MR-EOM, pCC
   Robert Izsak           : Overlap fitted RIJCOSX, COSX-SCS-MP3, EOM
   Christian Kollmar      : KDIIS, OOCD, Brueckner-CCSD(T), CCSD density
   Simone Kossmann        : Meta GGA functionals, TD-DFT gradient, OOMP2, MP2 Hessian
   Martin Krupicka        : AUTO-CI
   Dagmar Lenk            : GEPOL surface
   Dimitrios Liakos       : Extrapolation schemes; parallel MDCI
   Dimitrios Manganas     : ROCIS; embedding schemes
   Dimitrios Pantazis     : SARC Basis sets
   Taras Petrenko         : DFT Hessian,TD-DFT gradient, ASA, ECA, R-Raman, ABS, FL, XAS/XES, NRVS
   Peter Pinski           : DLPNO-MP2
   Christoph Reimann      : Effective Core Potentials
   Marius Retegan         : Local ZFS, SOC
   Christoph Riplinger    : Optimizer, TS searches, QM/MM, DLPNO-CCSD(T), (RO)-DLPNO pert. Triples
   Tobias Risthaus        : Range-separated hybrids, TD-DFT gradient, RPA, STAB
   Michael Roemelt        : Restricted open shell CIS
   Masaaki Saitow         : Open-shell DLPNO
   Barbara Sandhoefer     : DKH picture change effects
   Kantharuban Sivalingam : CASSCF convergence, NEVPT2, FIC-MRCI
   Georgi Stoychev        : AutoAux
   Boris Wezisla          : Elementary symmetry handling
   Frank Wennmohs         : Technical directorship


 We gratefully acknowledge several colleagues who have allowed us to
 interface, adapt or use parts of their codes:
   Stefan Grimme, W. Hujo, H. Kruse,             : VdW corrections, initial TS optimization,
                  C. Bannwarth                     DFT functionals, gCP, sTDA/sTD-DF
   Ed Valeev                                     : LibInt (2-el integral package), F12 methods
   Garnet Chan, S. Sharma, J. Yang, R. Olivares  : DMRG
   Ulf Ekstrom                                   : XCFun DFT Library
   Mihaly Kallay                                 : mrcc  (arbitrary order and MRCC methods)
   Andreas Klamt, Michael Diedenhofen            : otool_cosmo (COSMO solvation model)
   Jiri Pittner, Ondrej Demel                    : Mk-CCSD
   Frank Weinhold                                : gennbo (NPA and NBO analysis)
   Christopher J. Cramer and Donald G. Truhlar   : smd solvation model


 Your calculation uses the libint2 library for the computation of 2-el integrals
 For citations please refer to: http://libint.valeyev.net

 This ORCA versions uses:
   CBLAS   interface :  Fast vector & matrix operations
   LAPACKE interface :  Fast linear algebra routines
   SCALAPACK package :  Parallel linear algebra routines




*****************************************
The coordinations will be read from file: retinol.xyz
*****************************************


Your calculation utilizes the basis: 6-31G(d,p)
   H-He, Li-Ne : W. J. Hehre, R. Ditchfield and J.A. Pople, J. Chem. Phys. 56, 2257 (1972).
                 Note: He and Ne are unpublished basis sets taken from the Gaussian program.
                 Note: Li and B from J. D. Dill and J. A. Pople, J. Chem. Phys. 62, 2921 (1975).
   Na - Ar     : M. M. Francl, W. J. Pietro, W. J. Hehre, J. S. Binkley, M. S. Gordon, 
                 D. J. DeFrees and J. A. Pople, J. Chem. Phys. 77, 3654 (1982).
   K - Zn      : V. A. Rassolov, J. A. Pople, M. A. Ratner, and T. L. Windus, J. Chem. Phys. 109, 1223 (1998).

================================================================================
                                        WARNINGS
                       Please study these warnings very carefully!
================================================================================

Warning: TCutStore was < 0. Adjusted to Thresh (uncritical)

WARNING: Geometry Optimization
  ===> : Switching off AutoStart
         For restart on a previous wavefunction, please use MOREAD

INFO   : the flag for use of LIBINT has been found!

================================================================================
                                       INPUT FILE
================================================================================
NAME = retinol.inp
|  1> ! B3LYP 6-31G(d,p) Opt
|  2> * xyzfile 0 1 retinol.xyz
|  3> 
|  4>                          ****END OF INPUT****
================================================================================

                       *****************************
                       * Geometry Optimization Run *
                       *****************************

Geometry optimization settings:
Update method            Update   .... BFGS
Choice of coordinates    CoordSys .... Redundant Internals
Initial Hessian          InHess   .... Almoef's Model

Convergence Tolerances:
Energy Change            TolE     ....  5.0000e-06 Eh
Max. Gradient            TolMAXG  ....  3.0000e-04 Eh/bohr
RMS Gradient             TolRMSG  ....  1.0000e-04 Eh/bohr
Max. Displacement        TolMAXD  ....  4.0000e-03 bohr
RMS Displacement         TolRMSD  ....  2.0000e-03 bohr

------------------------------------------------------------------------------
                        ORCA OPTIMIZATION COORDINATE SETUP
------------------------------------------------------------------------------

The optimization will be done in new redundant internal coordinates
Making redundant internal coordinates   ...  (new redundants) done
Evaluating the initial hessian          ...  (Almloef) done
Evaluating the coordinates              ...  done
Calculating the B-matrix                .... done
Calculating the G-matrix                .... done
Diagonalizing the G-matrix              .... done
Small eigenvalue found = 9.354e-04
Small eigenvalue found = 3.143e-03
Small eigenvalue found = 5.881e-03
Small eigenvalue found = 6.455e-03
Small eigenvalue found = 1.243e-02
Small eigenvalue found = 1.777e-02
Small eigenvalue found = 2.044e-02
Small eigenvalue found = 2.829e-02
The first mode is                       ....  115
The number of degrees of freedom        ....  147

    -----------------------------------------------------------------
                    Redundant Internal Coordinates


    -----------------------------------------------------------------
         Definition                    Initial Value    Approx d2E/dq
    -----------------------------------------------------------------
      1. B(C   1,C   0)                  1.5204         0.386916   
      2. B(C   2,C   1)                  1.5231         0.383215   
      3. B(H   3,C   1)                  1.0962         0.352019   
      4. B(H   4,C   1)                  1.0961         0.352109   
      5. B(C   5,C   2)                  1.5133         0.397206   
      6. B(H   6,C   2)                  1.0976         0.350192   
      7. B(H   7,C   2)                  1.0969         0.351054   
      8. B(C   8,C   5)                  1.3559         0.708199   
      9. B(C   9,C   8)                  1.5440         0.354853   
     10. B(C   9,C   0)                  1.5527         0.343747   
     11. B(H  10,C   0)                  1.0974         0.350465   
     12. B(H  11,C   0)                  1.0990         0.348355   
     13. B(C  12,C   9)                  1.5465         0.351656   
     14. B(H  13,C  12)                  1.0963         0.351923   
     15. B(H  14,C  12)                  1.0958         0.352525   
     16. B(H  15,C  12)                  1.0965         0.351550   
     17. B(C  16,C   9)                  1.5455         0.352846   
     18. B(H  17,C  16)                  1.0955         0.352928   
     19. B(H  18,C  16)                  1.0961         0.352069   
     20. B(H  19,C  16)                  1.0962         0.351978   
     21. B(C  20,C   5)                  1.5111         0.400397   
     22. B(H  21,C  20)                  1.0957         0.352602   
     23. B(H  22,C  20)                  1.0949         0.353734   
     24. B(H  23,C  20)                  1.0929         0.356301   
     25. B(C  24,C   8)                  1.4611         0.481129   
     26. B(C  25,C  24)                  1.3436         0.741023   
     27. B(C  26,C  25)                  1.4649         0.474461   
     28. B(C  27,C  26)                  1.3497         0.724575   
     29. B(C  28,C  27)                  1.4500         0.501229   
     30. B(C  29,C  28)                  1.3437         0.740559   
     31. B(C  30,C  29)                  1.4640         0.476136   
     32. B(C  31,C  30)                  1.3500         0.723641   
     33. B(C  32,C  31)                  1.4931         0.427850   
     34. B(O  33,C  32)                  1.4211         0.499163   
     35. B(H  34,C  32)                  1.0940         0.354826   
     36. B(H  35,C  32)                  1.0912         0.358494   
     37. B(C  36,C  26)                  1.5090         0.403579   
     38. B(H  37,C  36)                  1.0959         0.352429   
     39. B(H  38,C  36)                  1.0958         0.352458   
     40. B(H  39,C  36)                  1.0917         0.357836   
     41. B(C  40,C  30)                  1.5075         0.405767   
     42. B(H  41,C  40)                  1.0959         0.352413   
     43. B(H  42,C  40)                  1.0954         0.352964   
     44. B(H  43,C  40)                  1.0923         0.357123   
     45. B(H  44,C  24)                  1.0859         0.365523   
     46. B(H  45,C  25)                  1.0906         0.359288   
     47. B(H  46,C  27)                  1.0909         0.358851   
     48. B(H  47,C  28)                  1.0831         0.369355   
     49. B(H  48,C  29)                  1.0904         0.359596   
     50. B(H  49,C  31)                  1.0898         0.360314   
     51. B(H  50,O  33)                  0.9715         0.498494   
     52. A(C   9,C   0,H  11)          109.9294         0.318201   
     53. A(C   1,C   0,H  10)          109.3571         0.324744   
     54. A(C   1,C   0,H  11)          108.4232         0.324422   
     55. A(C   9,C   0,H  10)          110.4283         0.318515   
     56. A(H  10,C   0,H  11)          106.1846         0.288104   
     57. A(C   1,C   0,C   9)          112.3126         0.360379   
     58. A(C   0,C   1,C   2)          110.3699         0.367138   
     59. A(C   2,C   1,H   3)          109.4947         0.324467   
     60. A(C   0,C   1,H   4)          110.4239         0.324993   
     61. A(C   0,C   1,H   3)          109.9661         0.324980   
     62. A(C   2,C   1,H   4)          110.0179         0.324481   
     63. A(H   3,C   1,H   4)          106.4909         0.288788   
     64. A(C   5,C   2,H   6)          108.2078         0.326106   
     65. A(H   6,C   2,H   7)          106.8932         0.288417   
     66. A(C   1,C   2,C   5)          114.3782         0.368796   
     67. A(C   1,C   2,H   7)          108.2143         0.324321   
     68. A(C   5,C   2,H   7)          109.7541         0.326238   
     69. A(C   1,C   2,H   6)          109.1368         0.324190   
     70. A(C   8,C   5,C  20)          124.8414         0.411103   
     71. A(C   2,C   5,C  20)          112.6442         0.371587   
     72. A(C   2,C   5,C   8)          122.5081         0.410520   
     73. A(C   9,C   8,C  24)          115.7351         0.376160   
     74. A(C   5,C   8,C   9)          122.7815         0.402419   
     75. A(C   5,C   8,C  24)          121.4822         0.424776   
     76. A(C   8,C   9,C  16)          109.2283         0.356696   
     77. A(C   0,C   9,C  16)          109.2452         0.354776   
     78. A(C  12,C   9,C  16)          108.2126         0.356148   
     79. A(C   8,C   9,C  12)          112.3261         0.356491   
     80. A(C   0,C   9,C  12)          106.5247         0.354573   
     81. A(C   0,C   9,C   8)          111.2032         0.355118   
     82. A(H  14,C  12,H  15)          106.8293         0.288781   
     83. A(H  13,C  12,H  15)          107.6524         0.288704   
     84. A(C   9,C  12,H  15)          110.9496         0.319861   
     85. A(H  13,C  12,H  14)          107.8490         0.288829   
     86. A(C   9,C  12,H  14)          112.0984         0.320006   
     87. A(C   9,C  12,H  13)          111.2378         0.319917   
     88. A(H  18,C  16,H  19)          107.0427         0.288777   
     89. A(H  17,C  16,H  19)          107.2811         0.288888   
     90. A(C   9,C  16,H  19)          111.5955         0.320101   
     91. A(C   9,C  16,H  18)          111.0940         0.320115   
     92. A(C   9,C  16,H  17)          111.8966         0.320243   
     93. A(H  17,C  16,H  18)          107.6865         0.288899   
     94. A(H  22,C  20,H  23)          108.1774         0.289544   
     95. A(H  21,C  20,H  23)          106.4067         0.289399   
     96. A(C   5,C  20,H  23)          113.7554         0.327468   
     97. A(C   5,C  20,H  22)          110.0376         0.327078   
     98. A(C   5,C  20,H  21)          109.9705         0.326905   
     99. A(H  21,C  20,H  22)          108.2992         0.289071   
    100. A(C   8,C  24,C  25)          123.1509         0.428237   
    101. A(C  25,C  24,H  44)          121.5067         0.364709   
    102. A(C   8,C  24,H  44)          115.3178         0.339033   
    103. A(C  24,C  25,C  26)          126.6287         0.427167   
    104. A(C  26,C  25,H  45)          116.0126         0.337275   
    105. A(C  24,C  25,H  45)          117.3586         0.363637   
    106. A(C  25,C  26,C  36)          117.1838         0.383714   
    107. A(C  25,C  26,C  27)          118.0528         0.425453   
    108. A(C  27,C  26,C  36)          124.7634         0.413354   
    109. A(C  26,C  27,C  28)          127.5686         0.429659   
    110. A(C  28,C  27,H  46)          114.1516         0.340310   
    111. A(C  26,C  27,H  46)          118.2797         0.362170   
    112. A(C  27,C  28,C  29)          122.4602         0.431346   
    113. A(C  29,C  28,H  47)          119.8393         0.365321   
    114. A(C  27,C  28,H  47)          117.7002         0.341956   
    115. A(C  28,C  29,C  30)          126.5168         0.427389   
    116. A(C  30,C  29,H  48)          115.3676         0.337522   
    117. A(C  28,C  29,H  48)          118.1144         0.363652   
    118. A(C  29,C  30,C  31)          118.3892         0.425624   
    119. A(C  31,C  30,C  40)          123.6998         0.413657   
    120. A(C  29,C  30,C  40)          117.9093         0.384310   
    121. A(C  30,C  31,C  32)          128.4319         0.417574   
    122. A(C  32,C  31,H  49)          112.7023         0.331689   
    123. A(C  30,C  31,H  49)          118.8629         0.362342   
    124. A(H  34,C  32,H  35)          109.4102         0.289963   
    125. A(O  33,C  32,H  35)          107.8022         0.337953   
    126. A(C  31,C  32,H  35)          113.6283         0.331411   
    127. A(O  33,C  32,H  34)          108.3823         0.337374   
    128. A(C  31,C  32,H  34)          109.9955         0.330847   
    129. A(C  31,C  32,O  33)          107.4594         0.388600   
    130. A(C  32,O  33,H  50)          106.6651         0.354114   
    131. A(H  38,C  36,H  39)          106.5448         0.289575   
    132. A(H  37,C  36,H  39)          106.5323         0.289572   
    133. A(C  26,C  36,H  39)          113.8910         0.328128   
    134. A(H  37,C  36,H  38)          108.7188         0.288885   
    135. A(C  26,C  36,H  38)          110.4659         0.327310   
    136. A(C  26,C  36,H  37)          110.4579         0.327305   
    137. A(H  42,C  40,H  43)          107.1912         0.289550   
    138. A(H  41,C  40,H  43)          106.1314         0.289479   
    139. A(C  30,C  40,H  43)          113.4180         0.328313   
    140. A(H  41,C  40,H  42)          108.7675         0.288948   
    141. A(C  30,C  40,H  42)          110.5175         0.327679   
    142. A(C  30,C  40,H  41)          110.6002         0.327595   
    143. D(H   3,C   1,C   0,H  11)    -59.4713         0.011910   
    144. D(H   4,C   1,C   0,H  11)   -176.7009         0.011910   
    145. D(C   2,C   1,C   0,H  10)    176.8025         0.011910   
    146. D(H   3,C   1,C   0,C   9)    178.8567         0.011910   
    147. D(H   3,C   1,C   0,H  10)     55.8959         0.011910   
    148. D(H   4,C   1,C   0,H  10)    -61.3336         0.011910   
    149. D(C   2,C   1,C   0,H  11)     61.4352         0.011910   
    150. D(C   2,C   1,C   0,C   9)    -60.2368         0.011910   
    151. D(H   4,C   1,C   0,C   9)     61.6272         0.011910   
    152. D(H   6,C   2,C   1,H   3)     43.2082         0.011694   
    153. D(H   6,C   2,C   1,C   0)    -77.9792         0.011694   
    154. D(C   5,C   2,C   1,H   4)    -78.7258         0.011694   
    155. D(H   6,C   2,C   1,H   4)    159.9175         0.011694   
    156. D(H   7,C   2,C   1,H   4)     43.9414         0.011694   
    157. D(H   7,C   2,C   1,H   3)    -72.7679         0.011694   
    158. D(C   5,C   2,C   1,H   3)    164.5649         0.011694   
    159. D(C   5,C   2,C   1,C   0)     43.3776         0.011694   
    160. D(H   7,C   2,C   1,C   0)    166.0448         0.011694   
    161. D(C  20,C   5,C   2,H   7)     46.3814         0.011716   
    162. D(C  20,C   5,C   2,H   6)    -69.9242         0.011716   
    163. D(C  20,C   5,C   2,C   1)    168.2089         0.011716   
    164. D(C   8,C   5,C   2,H   6)    109.1994         0.011716   
    165. D(C   8,C   5,C   2,C   1)    -12.6674         0.011716   
    166. D(C   8,C   5,C   2,H   7)   -134.4949         0.011716   
    167. D(C  24,C   8,C   5,C   2)    176.6700         0.035394   
    168. D(C   9,C   8,C   5,C  20)    176.0950         0.035394   
    169. D(C  24,C   8,C   5,C  20)     -4.3154         0.035394   
    170. D(C   9,C   8,C   5,C   2)     -2.9196         0.035394   
    171. D(C   8,C   9,C   0,H  11)    -76.5543         0.009549   
    172. D(C   8,C   9,C   0,H  10)    166.6102         0.009549   
    173. D(C   8,C   9,C   0,C   1)     44.2541         0.009549   
    174. D(C  16,C   9,C   8,C   5)    107.7632         0.009492   
    175. D(C  12,C   9,C   8,C  24)     48.2225         0.009492   
    176. D(C  12,C   9,C   8,C   5)   -132.1661         0.009492   
    177. D(C   0,C   9,C   8,C  24)    167.5050         0.009492   
    178. D(C   0,C   9,C   8,C   5)    -12.8836         0.009492   
    179. D(C  16,C   9,C   0,H  11)    162.8089         0.009549   
    180. D(C  16,C   9,C   0,H  10)     45.9734         0.009549   
    181. D(C  16,C   9,C   0,C   1)    -76.3827         0.009549   
    182. D(C  12,C   9,C   0,H  11)     46.1368         0.009549   
    183. D(C  12,C   9,C   0,H  10)    -70.6988         0.009549   
    184. D(C  16,C   9,C   8,C  24)    -71.8482         0.009492   
    185. D(C  12,C   9,C   0,C   1)    166.9452         0.009549   
    186. D(H  15,C  12,C   9,C  16)    -65.1888         0.009956   
    187. D(H  15,C  12,C   9,C   8)    174.1529         0.009956   
    188. D(H  15,C  12,C   9,C   0)     52.1700         0.009956   
    189. D(H  14,C  12,C   9,C  16)     54.1546         0.009956   
    190. D(H  14,C  12,C   9,C   8)    -66.5036         0.009956   
    191. D(H  14,C  12,C   9,C   0)    171.5134         0.009956   
    192. D(H  13,C  12,C   9,C  16)    174.9992         0.009956   
    193. D(H  13,C  12,C   9,C   8)     54.3410         0.009956   
    194. D(H  13,C  12,C   9,C   0)    -67.6420         0.009956   
    195. D(H  19,C  16,C   9,C  12)    -56.7450         0.010018   
    196. D(H  19,C  16,C   9,C   8)     65.8230         0.010018   
    197. D(H  19,C  16,C   9,C   0)   -172.3410         0.010018   
    198. D(H  18,C  16,C   9,C  12)     62.6313         0.010018   
    199. D(H  18,C  16,C   9,C   8)   -174.8007         0.010018   
    200. D(H  18,C  16,C   9,C   0)    -52.9647         0.010018   
    201. D(H  17,C  16,C   9,C  12)   -176.9718         0.010018   
    202. D(H  17,C  16,C   9,C   8)    -54.4038         0.010018   
    203. D(H  17,C  16,C   9,C   0)     67.4322         0.010018   
    204. D(H  21,C  20,C   5,C   8)   -130.4152         0.011897   
    205. D(H  21,C  20,C   5,C   2)     48.6843         0.011897   
    206. D(H  23,C  20,C   5,C   8)    -11.1877         0.011897   
    207. D(H  23,C  20,C   5,C   2)    167.9118         0.011897   
    208. D(H  22,C  20,C   5,C   8)    110.3674         0.011897   
    209. D(H  22,C  20,C   5,C   2)    -70.5330         0.011897   
    210. D(H  44,C  24,C   8,C   9)    -67.1615         0.015761   
    211. D(H  44,C  24,C   8,C   5)    113.2215         0.015761   
    212. D(C  25,C  24,C   8,C   9)    111.0565         0.015761   
    213. D(C  25,C  24,C   8,C   5)    -68.5604         0.015761   
    214. D(H  45,C  25,C  24,H  44)    178.8096         0.039070   
    215. D(H  45,C  25,C  24,C   8)      0.6990         0.039070   
    216. D(C  26,C  25,C  24,H  44)     -1.0397         0.039070   
    217. D(C  26,C  25,C  24,C   8)   -179.1504         0.039070   
    218. D(C  36,C  26,C  25,H  45)   -179.7878         0.015327   
    219. D(C  36,C  26,C  25,C  24)      0.0633         0.015327   
    220. D(C  27,C  26,C  25,H  45)      0.2619         0.015327   
    221. D(C  27,C  26,C  25,C  24)   -179.8869         0.015327   
    222. D(H  46,C  27,C  26,C  36)   -179.9482         0.037200   
    223. D(H  46,C  27,C  26,C  25)     -0.0020         0.037200   
    224. D(C  28,C  27,C  26,C  36)     -0.0196         0.037200   
    225. D(C  28,C  27,C  26,C  25)    179.9265         0.037200   
    226. D(H  47,C  28,C  27,H  46)    179.7574         0.017113   
    227. D(H  47,C  28,C  27,C  26)     -0.1736         0.017113   
    228. D(C  29,C  28,C  27,H  46)     -0.0358         0.017113   
    229. D(C  29,C  28,C  27,C  26)   -179.9668         0.017113   
    230. D(H  48,C  29,C  28,H  47)   -179.5503         0.039017   
    231. D(H  48,C  29,C  28,C  27)      0.2386         0.039017   
    232. D(C  30,C  29,C  28,H  47)      0.0476         0.039017   
    233. D(C  30,C  29,C  28,C  27)    179.8365         0.039017   
    234. D(C  40,C  30,C  29,H  48)   -178.8622         0.015435   
    235. D(C  40,C  30,C  29,C  28)      1.5303         0.015435   
    236. D(C  31,C  30,C  29,H  48)      0.6828         0.015435   
    237. D(C  31,C  30,C  29,C  28)   -178.9247         0.015435   
    238. D(H  49,C  31,C  30,C  40)    178.9486         0.037096   
    239. D(H  49,C  31,C  30,C  29)     -0.5682         0.037096   
    240. D(C  32,C  31,C  30,C  40)     -1.7139         0.037096   
    241. D(C  32,C  31,C  30,C  29)    178.7693         0.037096   
    242. D(H  35,C  32,C  31,H  49)    162.7332         0.013523   
    243. D(H  35,C  32,C  31,C  30)    -16.6379         0.013523   
    244. D(H  34,C  32,C  31,H  49)    -74.2286         0.013523   
    245. D(H  34,C  32,C  31,C  30)    106.4003         0.013523   
    246. D(O  33,C  32,C  31,H  49)     43.5620         0.013523   
    247. D(O  33,C  32,C  31,C  30)   -135.8091         0.013523   
    248. D(H  50,O  33,C  32,H  35)     55.6764         0.019696   
    249. D(H  50,O  33,C  32,H  34)    -62.6516         0.019696   
    250. D(H  50,O  33,C  32,C  31)    178.5156         0.019696   
    251. D(H  39,C  36,C  26,C  27)     -0.0268         0.012078   
    252. D(H  39,C  36,C  26,C  25)   -179.9734         0.012078   
    253. D(H  38,C  36,C  26,C  27)    119.8242         0.012078   
    254. D(H  38,C  36,C  26,C  25)    -60.1224         0.012078   
    255. D(H  37,C  36,C  26,C  27)   -119.8559         0.012078   
    256. D(H  37,C  36,C  26,C  25)     60.1975         0.012078   
    257. D(H  43,C  40,C  30,C  31)     -4.2969         0.012204   
    258. D(H  43,C  40,C  30,C  29)    175.2220         0.012204   
    259. D(H  42,C  40,C  30,C  31)    116.1004         0.012204   
    260. D(H  42,C  40,C  30,C  29)    -64.3807         0.012204   
    261. D(H  41,C  40,C  30,C  31)   -123.3921         0.012204   
    262. D(H  41,C  40,C  30,C  29)     56.1269         0.012204   
    -----------------------------------------------------------------

Number of atoms                         .... 51
Number of degrees of freedom            .... 262

         *************************************************************
         *                GEOMETRY OPTIMIZATION CYCLE   1            *
         *************************************************************
---------------------------------
CARTESIAN COORDINATES (ANGSTROEM)
---------------------------------
  C     -5.308310    2.763670    0.634720
  C     -5.215120    1.282590    0.965600
  C     -4.463120    0.540570   -0.131500
  H     -6.220480    0.858640    1.071070
  H     -4.713290    1.136750    1.929110
  C     -3.220920    1.249140   -0.626430
  H     -5.133800    0.386600   -0.986600
  H     -4.196600   -0.453650    0.247630
  C     -2.949250    2.542080   -0.321560
  C     -3.910810    3.426860    0.500930
  H     -5.901280    3.271980    1.405600
  H     -5.867370    2.875140   -0.304900
  C     -4.140810    4.809490   -0.152500
  H     -4.479980    4.706950   -1.189910
  H     -3.231210    5.420530   -0.155360
  H     -4.903770    5.378460    0.392080
  C     -3.316450    3.651300    1.909850
  H     -3.079310    2.705250    2.408670
  H     -4.016790    4.199290    2.550750
  H     -2.391700    4.238520    1.868780
  C     -2.355760    0.367180   -1.496570
  H     -2.969780   -0.122510   -2.260640
  H     -1.880110   -0.409050   -0.888350
  H     -1.571890    0.909390   -2.031320
  C     -1.708580    3.182980   -0.751530
  C     -0.501910    2.849150   -0.264030
  C      0.783890    3.450530   -0.626060
  C      1.897010    2.977220   -0.027270
  C      3.264240    3.415590   -0.229680
  C      4.301700    2.867880    0.425530
  C      5.711660    3.237160    0.288270
  C      6.626190    2.560020    1.014680
  C      8.109450    2.730170    1.030710
  O      8.687840    1.432440    1.000480
  H      8.419310    3.224520    1.956170
  H      8.495040    3.287290    0.175320
  C      0.762510    4.559780   -1.648850
  H      0.153110    5.397870   -1.292270
  H      0.345380    4.199620   -2.596030
  H      1.748470    4.968300   -1.878720
  C      6.057810    4.363250   -0.652290
  H      5.508580    5.272690   -0.383580
  H      5.807880    4.092430   -1.683890
  H      7.116330    4.632170   -0.636530
  H     -1.825740    3.979820   -1.479930
  H     -0.464700    2.051920    0.479260
  H      1.790000    2.169540    0.698240
  H      3.437040    4.213140   -0.941820
  H      4.096410    2.061810    1.130540
  H      6.286180    1.770030    1.684050
  H      9.651200    1.557030    0.987150

----------------------------
CARTESIAN COORDINATES (A.U.)
----------------------------
  NO LB      ZA    FRAG     MASS         X           Y           Z
   0 C     6.0000    0    12.011  -10.031252    5.222579    1.199447
   1 C     6.0000    0    12.011   -9.855149    2.423744    1.824720
   2 C     6.0000    0    12.011   -8.434075    1.021529   -0.248499
   3 H     1.0000    0     1.008  -11.755004    1.622594    2.024029
   4 H     1.0000    0     1.008   -8.906827    2.148146    3.645490
   5 C     6.0000    0    12.011   -6.086657    2.360533   -1.183781
   6 H     1.0000    0     1.008   -9.701476    0.730568   -1.864404
   7 H     1.0000    0     1.008   -7.930425   -0.857274    0.467953
   8 C     6.0000    0    12.011   -5.573275    4.803835   -0.607660
   9 C     6.0000    0    12.011   -7.390360    6.475827    0.946621
  10 H     1.0000    0     1.008  -11.151803    6.183146    2.656199
  11 H     1.0000    0     1.008  -11.087722    5.433227   -0.576177
  12 C     6.0000    0    12.011   -7.824997    9.088619   -0.288183
  13 H     1.0000    0     1.008   -8.465935    8.894846   -2.248604
  14 H     1.0000    0     1.008   -6.106102   10.243317   -0.293588
  15 H     1.0000    0     1.008   -9.266782   10.163816    0.740924
  16 C     6.0000    0    12.011   -6.267182    6.899957    3.609093
  17 H     1.0000    0     1.008   -5.819053    5.112182    4.551727
  18 H     1.0000    0     1.008   -7.590633    7.935508    4.820219
  19 H     1.0000    0     1.008   -4.519658    8.009642    3.531482
  20 C     6.0000    0    12.011   -4.451741    0.693870   -2.828107
  21 H     1.0000    0     1.008   -5.612071   -0.231510   -4.271990
  22 H     1.0000    0     1.008   -3.552893   -0.772992   -1.678738
  23 H     1.0000    0     1.008   -2.970442    1.718498   -3.838638
  24 C     6.0000    0    12.011   -3.228748    6.014960   -1.420186
  25 C     6.0000    0    12.011   -0.948472    5.384113   -0.498944
  26 C     6.0000    0    12.011    1.481337    6.520557   -1.183082
  27 C     6.0000    0    12.011    3.584829    5.626130   -0.051533
  28 C     6.0000    0    12.011    6.168520    6.454530   -0.434032
  29 C     6.0000    0    12.011    8.129035    5.419508    0.804135
  30 C     6.0000    0    12.011   10.793473    6.117346    0.544751
  31 C     6.0000    0    12.011   12.521684    4.837737    1.917467
  32 C     6.0000    0    12.011   15.324640    5.159274    1.947760
  33 O     8.0000    0    15.999   16.417638    2.706919    1.890633
  34 H     1.0000    0     1.008   15.910190    6.093460    3.696626
  35 H     1.0000    0     1.008   16.053299    6.212078    0.331307
  36 C     6.0000    0    12.011    1.440935    8.616735   -3.115875
  37 H     1.0000    0     1.008    0.289336   10.200496   -2.442036
  38 H     1.0000    0     1.008    0.652674    7.936132   -4.905786
  39 H     1.0000    0     1.008    3.304129    9.388726   -3.550266
  40 C     6.0000    0    12.011   11.447602    8.245348   -1.232649
  41 H     1.0000    0     1.008   10.409708    9.963940   -0.724861
  42 H     1.0000    0     1.008   10.975303    7.733572   -3.182091
  43 H     1.0000    0     1.008   13.447915    8.753533   -1.202867
  44 H     1.0000    0     1.008   -3.450149    7.520770   -2.796662
  45 H     1.0000    0     1.008   -0.878156    3.877567    0.905670
  46 H     1.0000    0     1.008    3.382610    4.099836    1.319482
  47 H     1.0000    0     1.008    6.495064    7.961681   -1.779782
  48 H     1.0000    0     1.008    7.741093    3.896256    2.136411
  49 H     1.0000    0     1.008   11.879159    3.344872    3.182393
  50 H     1.0000    0     1.008   18.238125    2.942360    1.865443

--------------------------------
INTERNAL COORDINATES (ANGSTROEM)
--------------------------------
 C      0   0   0     0.000000000000     0.00000000     0.00000000
 C      1   0   0     1.520448590680     0.00000000     0.00000000
 C      2   1   0     1.523064703287   110.36987365     0.00000000
 H      2   1   3     1.096178020670   109.96610375   239.09348625
 H      2   1   3     1.096108650910   110.42385575   121.86391068
 C      3   2   1     1.513303667411   114.37820170    43.37757908
 H      3   2   1     1.097594840230   109.13681517   282.02084066
 H      3   2   1     1.096925647298   108.21430411   166.04475541
 C      6   3   2     1.355892381201   122.50811196   347.33261608
 C      9   6   3     1.543995816737   122.78147814   357.08043348
 H      1   2   3     1.097382545606   109.35713559   176.80246170
 H      1   2   3     1.099026564238   108.42321811    61.43521810
 C     10   9   6     1.546459337260   112.32606544   227.83394850
 H     13  10   9     1.096252821479   111.23781845    54.34096869
 H     13  10   9     1.095787489069   112.09842618   293.49637566
 H     13  10   9     1.096541015603   110.94956643   174.15291796
 C     10   9   6     1.545539611139   109.22830369   107.76319342
 H     17  10   9     1.095475866690   111.89658716   305.59623605
 H     17  10   9     1.096139574005   111.09395573   185.19927994
 H     17  10   9     1.096210123927   111.59548230    65.82304174
 C      6   3   2     1.511125040094   112.64415250   168.20894259
 H     21   6   3     1.095727986957   109.97048898    48.68431857
 H     21   6   3     1.094855014968   110.03763203   289.46695464
 H     21   6   3     1.092886738642   113.75535469   167.91182758
 C      9   6   3     1.461125956172   121.48222008   176.66999571
 C     25   9   6     1.343559156792   123.15086344   291.43957872
 C     26  25   9     1.464925003302   126.62865785   180.84960686
 C     27  26  25     1.349669572377   118.05278766   180.11305129
 C     28  27  26     1.449984806093   127.56862463   179.92649977
 C     29  28  27     1.343729749540   122.46018298   180.03322571
 C     30  29  28     1.463965582792   126.51683717   179.83649405
 C     31  30  29     1.350020440067   118.38924361   181.07530209
 C     32  31  30     1.493073411122   128.43191885   178.76933348
 O     33  32  31     1.421109425027   107.45939202   224.19088875
 H     33  32  31     1.094016157879   109.99552579   106.40034144
 H     33  32  31     1.091216932878   113.62827974   343.36209629
 C     27  26  25     1.508970526882   117.18376782     0.06331908
 H     37  27  26     1.095861535277   110.45794493    60.19750436
 H     37  27  26     1.095838772311   110.46590181   299.87758794
 H     37  27  26     1.091716963732   113.89095178   180.02659600
 C     31  30  29     1.507498465737   117.90925460     1.53026223
 H     41  31  30     1.095873975692   110.60018801    56.12685436
 H     41  31  30     1.095448327079   110.51751897   295.61930186
 H     41  31  30     1.092259554502   113.41804808   175.22202449
 H     25   9   6     1.085931402622   115.31784473   113.22152396
 H     26  25   9     1.090614634552   117.35861585     0.69899284
 H     28  27  26     1.090945866026   118.27971239     0.00000000
 H     29  28  27     1.083092434698   117.70017451   359.82640966
 H     30  29  28     1.090381552072   118.11444075     0.23855596
 H     32  31  30     1.089838151791   118.86292429   359.43180902
 H     34  33  32     0.971474573316   106.66511390   178.51561808

---------------------------
INTERNAL COORDINATES (A.U.)
---------------------------
 C      0   0   0     0.000000000000     0.00000000     0.00000000
 C      1   0   0     2.873231437091     0.00000000     0.00000000
 C      2   1   0     2.878175173455   110.36987365     0.00000000
 H      2   1   3     2.071476253090   109.96610375   239.09348625
 H      2   1   3     2.071345163242   110.42385575   121.86391068
 C      3   2   1     2.859729488866   114.37820170    43.37757908
 H      3   2   1     2.074153654040   109.13681517   282.02084066
 H      3   2   1     2.072889062667   108.21430411   166.04475541
 C      6   3   2     2.562265267541   122.50811196   347.33261608
 C      9   6   3     2.917729245552   122.78147814   357.08043348
 H      1   2   3     2.073752475340   109.35713559   176.80246170
 H      1   2   3     2.076859220314   108.42321811    61.43521810
 C     10   9   6     2.922384624668   112.32606544   227.83394850
 H     13  10   9     2.071617606133   111.23781845    54.34096869
 H     13  10   9     2.070738255318   112.09842618   293.49637566
 H     13  10   9     2.072162214102   110.94956643   174.15291796
 C     10   9   6     2.920646594180   109.22830369   107.76319342
 H     17  10   9     2.070149374364   111.89658716   305.59623605
 H     17  10   9     2.071403599423   111.09395573   185.19927994
 H     17  10   9     2.071536919454   111.59548230    65.82304174
 C      6   3   2     2.855612479889   112.64415250   168.20894259
 H     21   6   3     2.070625812621   109.97048898    48.68431857
 H     21   6   3     2.068976134639   110.03763203   289.46695464
 H     21   6   3     2.065256631428   113.75535469   167.91182758
 C      9   6   3     2.761127904329   121.48222008   176.66999571
 C     25   9   6     2.538958851059   123.15086344   291.43957872
 C     26  25   9     2.768307062975   126.62865785   180.84960686
 C     27  26  25     2.550505863079   118.05278766   180.11305129
 C     28  27  26     2.740074181862   127.56862463   179.92649977
 C     29  28  27     2.539281224634   122.46018298   180.03322571
 C     30  29  28     2.766494020964   126.51683717   179.83649405
 C     31  30  29     2.551168906923   118.38924361   181.07530209
 C     32  31  30     2.821499844861   128.43191885   178.76933348
 O     33  32  31     2.685507619635   107.45939202   224.19088875
 H     33  32  31     2.067390924476   109.99552579   106.40034144
 H     33  32  31     2.062101155837   113.62827974   343.36209629
 C     27  26  25     2.851541039967   117.18376782     0.06331908
 H     37  27  26     2.070878182372   110.45794493    60.19750436
 H     37  27  26     2.070835166600   110.46590181   299.87758794
 H     37  27  26     2.063046077209   113.89095178   180.02659600
 C     31  30  29     2.848759247550   117.90925460     1.53026223
 H     41  31  30     2.070901691350   110.60018801    56.12685436
 H     41  31  30     2.070097332041   110.51751897   295.61930186
 H     41  31  30     2.064071425167   113.41804808   175.22202449
 H     25   9   6     2.052112951180   115.31784473   113.22152396
 H     26  25   9     2.060962976951   117.35861585     0.69899284
 H     28  27  26     2.061588913723   118.27971239     0.00000000
 H     29  28  27     2.046748079301   117.70017451   359.82640966
 H     30  29  28     2.060522514897   118.11444075     0.23855596
 H     32  31  30     2.059495637185   118.86292429   359.43180902
 H     34  33  32     1.835820889636   106.66511390   178.51561808

---------------------
BASIS SET INFORMATION
---------------------
There are 3 groups of distinct atoms

 Group   1 Type C   : 10s4p1d contracted to 3s2p1d pattern {631/31/1}
 Group   2 Type H   : 4s1p contracted to 2s1p pattern {31/1}
 Group   3 Type O   : 10s4p1d contracted to 3s2p1d pattern {631/31/1}

Atom   0C    basis set group =>   1
Atom   1C    basis set group =>   1
Atom   2C    basis set group =>   1
Atom   3H    basis set group =>   2
Atom   4H    basis set group =>   2
Atom   5C    basis set group =>   1
Atom   6H    basis set group =>   2
Atom   7H    basis set group =>   2
Atom   8C    basis set group =>   1
Atom   9C    basis set group =>   1
Atom  10H    basis set group =>   2
Atom  11H    basis set group =>   2
Atom  12C    basis set group =>   1
Atom  13H    basis set group =>   2
Atom  14H    basis set group =>   2
Atom  15H    basis set group =>   2
Atom  16C    basis set group =>   1
Atom  17H    basis set group =>   2
Atom  18H    basis set group =>   2
Atom  19H    basis set group =>   2
Atom  20C    basis set group =>   1
Atom  21H    basis set group =>   2
Atom  22H    basis set group =>   2
Atom  23H    basis set group =>   2
Atom  24C    basis set group =>   1
Atom  25C    basis set group =>   1
Atom  26C    basis set group =>   1
Atom  27C    basis set group =>   1
Atom  28C    basis set group =>   1
Atom  29C    basis set group =>   1
Atom  30C    basis set group =>   1
Atom  31C    basis set group =>   1
Atom  32C    basis set group =>   1
Atom  33O    basis set group =>   3
Atom  34H    basis set group =>   2
Atom  35H    basis set group =>   2
Atom  36C    basis set group =>   1
Atom  37H    basis set group =>   2
Atom  38H    basis set group =>   2
Atom  39H    basis set group =>   2
Atom  40C    basis set group =>   1
Atom  41H    basis set group =>   2
Atom  42H    basis set group =>   2
Atom  43H    basis set group =>   2
Atom  44H    basis set group =>   2
Atom  45H    basis set group =>   2
Atom  46H    basis set group =>   2
Atom  47H    basis set group =>   2
Atom  48H    basis set group =>   2
Atom  49H    basis set group =>   2
Atom  50H    basis set group =>   2
------------------------------------------------------------------------------
                           ORCA GTO INTEGRAL CALCULATION
------------------------------------------------------------------------------

                         BASIS SET STATISTICS AND STARTUP INFO

 # of primitive gaussian shells          ...  465
 # of primitive gaussian functions       ...  777
 # of contracted shells                  ...  216
 # of contracted basis functions         ...  444
 Highest angular momentum                ...    2
 Maximum contraction depth               ...    6
 Integral package used                   ... LIBINT
 Integral threshhold            Thresh   ...  2.500e-11
 Primitive cut-off              TCut     ...  2.500e-12


------------------------------ INTEGRAL EVALUATION ----------------------------


 * One electron integrals 
 Pre-screening matrix                    ... done
 Shell pair data                         ... done (   0.010 sec)

-------------------------------------------------------------------------------
                                 ORCA SCF
-------------------------------------------------------------------------------

------------
SCF SETTINGS
------------
Hamiltonian:
 Density Functional     Method          .... DFT(GTOs)
 Exchange Functional    Exchange        .... B88
   X-Alpha parameter    XAlpha          ....  0.666667
   Becke's b parameter  XBeta           ....  0.004200
 Correlation Functional Correlation     .... LYP
 LDA part of GGA corr.  LDAOpt          .... VWN-5
 Gradients option       PostSCFGGA      .... off
 Hybrid DFT is turned on
   Fraction HF Exchange ScalHFX         ....  0.200000
   Scaling of DF-GGA-X  ScalDFX         ....  0.720000
   Scaling of DF-GGA-C  ScalDFC         ....  0.810000
   Scaling of DF-LDA-C  ScalLDAC        ....  1.000000
   Perturbative correction              ....  0.000000
   NL short-range parameter             ....  4.800000


General Settings:
 Integral files         IntName         .... retinol
 Hartree-Fock type      HFTyp           .... RHF
 Total Charge           Charge          ....    0
 Multiplicity           Mult            ....    1
 Number of Electrons    NEL             ....  158
 Basis Dimension        Dim             ....  444
 Nuclear Repulsion      ENuc            ....   1555.0470495830 Eh

Convergence Acceleration:
 DIIS                   CNVDIIS         .... on
   Start iteration      DIISMaxIt       ....    12
   Startup error        DIISStart       ....  0.200000
   # of expansion vecs  DIISMaxEq       ....     5
   Bias factor          DIISBfac        ....   1.050
   Max. coefficient     DIISMaxC        ....  10.000
 Newton-Raphson         CNVNR           .... off
 SOSCF                  CNVSOSCF        .... on
   Start iteration      SOSCFMaxIt      ....   150
   Startup grad/error   SOSCFStart      ....  0.003300
 Level Shifting         CNVShift        .... on
   Level shift para.    LevelShift      ....    0.2500
   Turn off err/grad.   ShiftErr        ....    0.0010
 Zerner damping         CNVZerner       .... off
 Static damping         CNVDamp         .... on
   Fraction old density DampFac         ....    0.7000
   Max. Damping (<1)    DampMax         ....    0.9800
   Min. Damping (>=0)   DampMin         ....    0.0000
   Turn off err/grad.   DampErr         ....    0.1000
 Fernandez-Rico         CNVRico         .... off

SCF Procedure:
 Maximum # iterations   MaxIter         ....   125
 SCF integral mode      SCFMode         .... Direct
   Integral package                     .... LIBINT
 Reset frequeny         DirectResetFreq ....    20
 Integral Threshold     Thresh          ....  2.500e-11 Eh
 Primitive CutOff       TCut            ....  2.500e-12 Eh

Convergence Tolerance:
 Convergence Check Mode ConvCheckMode   .... Total+1el-Energy
 Convergence forced     ConvForced      .... 0
 Energy Change          TolE            ....  1.000e-08 Eh
 1-El. energy change                    ....  1.000e-05 Eh
 Orbital Gradient       TolG            ....  1.000e-05
 Orbital Rotation angle TolX            ....  1.000e-05
 DIIS Error             TolErr          ....  5.000e-07


Diagonalization of the overlap matrix:
Smallest eigenvalue                        ... 1.101e-03
Time for diagonalization                   ...    0.155 sec
Threshold for overlap eigenvalues          ... 1.000e-08
Number of eigenvalues below threshold      ... 0
Time for construction of square roots      ...    0.077 sec
Total time needed                          ...    0.233 sec

-------------------
DFT GRID GENERATION
-------------------

General Integration Accuracy     IntAcc      ...  4.340
Radial Grid Type                 RadialGrid  ... Gauss-Chebyshev
Angular Grid (max. acc.)         AngularGrid ... Lebedev-110
Angular grid pruning method      GridPruning ... 3 (G Style)
Weight generation scheme         WeightScheme... Becke
Basis function cutoff            BFCut       ...    1.0000e-11
Integration weight cutoff        WCut        ...    1.0000e-14
Grids for H and He will be reduced by one unit

# of grid points (after initial pruning)     ...  58656 (   0.1 sec)
# of grid points (after weights+screening)   ...  52025 (   2.2 sec)
nearest neighbour list constructed           ...    0.0 sec
Grid point re-assignment to atoms done       ...    0.0 sec
Grid point division into batches done        ...    0.1 sec
Reduced shell lists constructed in    2.0 sec

Total number of grid points                  ...    52025
Total number of batches                      ...      841
Average number of points per batch           ...       61
Average number of grid points per atom       ...     1020
Average number of shells per batch           ...    80.82 (37.42%)
Average number of basis functions per batch  ...   159.32 (35.88%)
Average number of large shells per batch     ...    53.40 (66.08%)
Average number of large basis fcns per batch ...   106.08 (66.58%)
Maximum spatial batch extension              ...  17.20, 19.49, 20.78 au
Average spatial batch extension              ...   3.07,  3.54,  3.61 au

Time for grid setup =    4.401 sec

------------------------------
INITIAL GUESS: MODEL POTENTIAL
------------------------------
Loading Hartree-Fock densities                     ... done
Calculating cut-offs                               ... done
Setting up the integral package                    ... done
Initializing the effective Hamiltonian             ... done
Starting the Coulomb interaction                   ... done (   4.0 sec)
Reading the grid                                   ... done
Mapping shells                                     ... done
Starting the XC term evaluation                    ... done (   2.4 sec)
  promolecular density results
     # of electrons  =    157.983835277
     EX              =   -119.937556255
     EC              =     -5.183547385
     EX+EC           =   -125.121103640
Transforming the Hamiltonian                       ... done (   0.1 sec)
Diagonalizing the Hamiltonian                      ... done (   0.1 sec)
Back transforming the eigenvectors                 ... done (   0.0 sec)
Now organizing SCF variables                       ... done
                      ------------------
                      INITIAL GUESS DONE (  11.2 sec)
                      ------------------
--------------
SCF ITERATIONS
--------------
ITER       Energy         Delta-E        Max-DP      RMS-DP      [F,P]     Damp
               ***  Starting incremental Fock matrix formation  ***
  0   -854.1627561317   0.000000000000 0.07761633  0.00129352  0.2579071 0.7000
  1   -854.4506981866  -0.287942054887 0.04336483  0.00097720  0.1154947 0.7000
                               ***Turning on DIIS***
  2   -854.5743662996  -0.123668113051 0.06925870  0.00167608  0.0358617 0.0000
  3   -854.7484824887  -0.174116189091 0.03247635  0.00070634  0.0619545 0.0000
  4   -854.7957722099  -0.047289721205 0.01203668  0.00021569  0.0093128 0.0000
  5   -854.7981568443  -0.002384634405 0.00588814  0.00007504  0.0093511 0.0000
                      *** Initiating the SOSCF procedure ***
                           *** Shutting down DIIS ***
                      *** Re-Reading the Fockian *** 
                      *** Removing any level shift *** 
ITER      Energy       Delta-E        Grad      Rot      Max-DP    RMS-DP
  6   -854.79839584  -0.0002389977  0.000287  0.000287  0.001100  0.000024
               *** Restarting incremental Fock matrix formation ***
  7   -854.79841375  -0.0000179031  0.000270  0.001341  0.000721  0.000016
  8   -854.79841497  -0.0000012276  0.000118  0.000424  0.000323  0.000006
  9   -854.79841647  -0.0000014936  0.000052  0.000203  0.000161  0.000004
 10   -854.79841645   0.0000000143  0.000046  0.000089  0.000101  0.000002
 11   -854.79841660  -0.0000001462  0.000012  0.000055  0.000039  0.000001
 12   -854.79841660   0.0000000015  0.000012  0.000021  0.000025  0.000000
 13   -854.79841660  -0.0000000082  0.000004  0.000013  0.000011  0.000000
 14   -854.79841660   0.0000000047  0.000006  0.000008  0.000008  0.000000
                  ***Gradient check signals convergence***
              ***Rediagonalizing the Fockian in SOSCF/NRSCF***

               *****************************************************
               *                     SUCCESS                       *
               *           SCF CONVERGED AFTER  15 CYCLES          *
               *****************************************************

Setting up the final grid:

General Integration Accuracy     IntAcc      ...  4.670
Radial Grid Type                 RadialGrid  ... Gauss-Chebyshev
Angular Grid (max. acc.)         AngularGrid ... Lebedev-302
Angular grid pruning method      GridPruning ... 3 (G Style)
Weight generation scheme         WeightScheme... Becke
Basis function cutoff            BFCut       ...    1.0000e-11
Integration weight cutoff        WCut        ...    1.0000e-14
Grids for H and He will be reduced by one unit

# of grid points (after initial pruning)     ... 232272 (   0.3 sec)
# of grid points (after weights+screening)   ... 201528 (   8.5 sec)
nearest neighbour list constructed           ...    0.0 sec
Grid point re-assignment to atoms done       ...    0.1 sec
Grid point division into batches done        ...    0.9 sec
Reduced shell lists constructed in    7.6 sec

Total number of grid points                  ...   201528
Total number of batches                      ...     3174
Average number of points per batch           ...       63
Average number of grid points per atom       ...     3952
Average number of shells per batch           ...    72.87 (33.74%)
Average number of basis functions per batch  ...   142.79 (32.16%)
Average number of large shells per batch     ...    47.32 (64.94%)
Average number of large basis fcns per batch ...    93.40 (65.41%)
Maximum spatial batch extension              ...  18.00, 21.50, 24.96 au
Average spatial batch extension              ...   2.06,  2.23,  2.25 au

Final grid set up in   16.4 sec
Final integration                            ... done (  10.2 sec)
Change in XC energy                          ...    -0.001089064
Integrated number of electrons               ...   158.000385794
Previous integrated no of electrons          ...   157.999408275

----------------
TOTAL SCF ENERGY
----------------

Total Energy       :         -854.79950567 Eh          -23260.27708 eV

Components:
Nuclear Repulsion  :         1555.04704958 Eh           42314.98147 eV
Electronic Energy  :        -2409.84655525 Eh          -65575.25855 eV
One Electron Energy:        -4244.70491969 Eh         -115504.29299 eV
Two Electron Energy:         1834.85836444 Eh           49929.03444 eV

Virial components:
Potential Energy   :        -1704.36203039 Eh          -46378.04866 eV
Kinetic Energy     :          849.56252473 Eh           23117.77158 eV
Virial Ratio       :            2.00616433


DFT components:
N(Alpha)           :       79.000192897145 electrons
N(Beta)            :       79.000192897145 electrons
N(Total)           :      158.000385794289 electrons
E(X)               :      -97.318313682494 Eh       
E(C)               :       -6.126579531869 Eh       
E(XC)              :     -103.444893214363 Eh       

---------------
SCF CONVERGENCE
---------------

  Last Energy change         ...   -3.7774e-09  Tolerance :   1.0000e-08
  Last MAX-Density change    ...    2.4260e-06  Tolerance :   1.0000e-07
  Last RMS-Density change    ...    4.3456e-08  Tolerance :   5.0000e-09
  Last Orbital Gradient      ...    5.2782e-07  Tolerance :   1.0000e-05
  Last Orbital Rotation      ...    3.2280e-06  Tolerance :   1.0000e-05

             **** THE GBW FILE WAS UPDATED (retinol.gbw) ****
             **** DENSITY FILE WAS UPDATED (retinol.scfp.tmp) ****
             **** ENERGY FILE WAS UPDATED (retinol.en.tmp) ****
----------------
ORBITAL ENERGIES
----------------

  NO   OCC          E(Eh)            E(eV) 
   0   2.0000     -19.128355      -520.5090 
   1   2.0000     -10.222643      -278.1723 
   2   2.0000     -10.187554      -277.2174 
   3   2.0000     -10.185012      -277.1483 
   4   2.0000     -10.183670      -277.1117 
   5   2.0000     -10.175292      -276.8838 
   6   2.0000     -10.174474      -276.8615 
   7   2.0000     -10.174347      -276.8581 
   8   2.0000     -10.173458      -276.8339 
   9   2.0000     -10.173436      -276.8333 
  10   2.0000     -10.173289      -276.8293 
  11   2.0000     -10.171964      -276.7932 
  12   2.0000     -10.171478      -276.7800 
  13   2.0000     -10.168398      -276.6962 
  14   2.0000     -10.166816      -276.6531 
  15   2.0000     -10.166057      -276.6325 
  16   2.0000     -10.162517      -276.5361 
  17   2.0000     -10.161743      -276.5151 
  18   2.0000     -10.160506      -276.4814 
  19   2.0000     -10.160408      -276.4788 
  20   2.0000     -10.156418      -276.3702 
  21   2.0000      -1.008042       -27.4302 
  22   2.0000      -0.840540       -22.8723 
  23   2.0000      -0.825088       -22.4518 
  24   2.0000      -0.809576       -22.0297 
  25   2.0000      -0.775070       -21.0907 
  26   2.0000      -0.771691       -20.9988 
  27   2.0000      -0.750082       -20.4108 
  28   2.0000      -0.719152       -19.5691 
  29   2.0000      -0.708973       -19.2921 
  30   2.0000      -0.683403       -18.5963 
  31   2.0000      -0.672127       -18.2895 
  32   2.0000      -0.669637       -18.2218 
  33   2.0000      -0.662726       -18.0337 
  34   2.0000      -0.648625       -17.6500 
  35   2.0000      -0.603511       -16.4224 
  36   2.0000      -0.574507       -15.6331 
  37   2.0000      -0.554738       -15.0952 
  38   2.0000      -0.540550       -14.7091 
  39   2.0000      -0.528052       -14.3690 
  40   2.0000      -0.519830       -14.1453 
  41   2.0000      -0.498059       -13.5529 
  42   2.0000      -0.482706       -13.1351 
  43   2.0000      -0.473082       -12.8732 
  44   2.0000      -0.461972       -12.5709 
  45   2.0000      -0.455702       -12.4003 
  46   2.0000      -0.442415       -12.0387 
  47   2.0000      -0.438061       -11.9203 
  48   2.0000      -0.432767       -11.7762 
  49   2.0000      -0.422635       -11.5005 
  50   2.0000      -0.416016       -11.3204 
  51   2.0000      -0.413403       -11.2493 
  52   2.0000      -0.412550       -11.2260 
  53   2.0000      -0.411330       -11.1929 
  54   2.0000      -0.406465       -11.0605 
  55   2.0000      -0.389646       -10.6028 
  56   2.0000      -0.385597       -10.4926 
  57   2.0000      -0.382073       -10.3967 
  58   2.0000      -0.380897       -10.3647 
  59   2.0000      -0.374229       -10.1833 
  60   2.0000      -0.368806       -10.0357 
  61   2.0000      -0.361417        -9.8346 
  62   2.0000      -0.357092        -9.7170 
  63   2.0000      -0.355923        -9.6852 
  64   2.0000      -0.344537        -9.3753 
  65   2.0000      -0.338665        -9.2156 
  66   2.0000      -0.336407        -9.1541 
  67   2.0000      -0.332321        -9.0429 
  68   2.0000      -0.327578        -8.9138 
  69   2.0000      -0.320923        -8.7328 
  70   2.0000      -0.317791        -8.6475 
  71   2.0000      -0.307289        -8.3617 
  72   2.0000      -0.301413        -8.2019 
  73   2.0000      -0.284612        -7.7447 
  74   2.0000      -0.280298        -7.6273 
  75   2.0000      -0.261242        -7.1088 
  76   2.0000      -0.243790        -6.6339 
  77   2.0000      -0.217020        -5.9054 
  78   2.0000      -0.182518        -4.9666 
  79   0.0000      -0.044302        -1.2055 
  80   0.0000       0.019237         0.5235 
  81   0.0000       0.042129         1.1464 
  82   0.0000       0.078022         2.1231 
  83   0.0000       0.087505         2.3811 
  84   0.0000       0.090651         2.4667 
  85   0.0000       0.098827         2.6892 
  86   0.0000       0.110935         3.0187 
  87   0.0000       0.112577         3.0634 
  88   0.0000       0.115243         3.1359 
  89   0.0000       0.120250         3.2722 
  90   0.0000       0.128533         3.4976 
  91   0.0000       0.134772         3.6673 
  92   0.0000       0.138873         3.7789 
  93   0.0000       0.139959         3.8085 
  94   0.0000       0.147053         4.0015 
  95   0.0000       0.153612         4.1800 
  96   0.0000       0.159097         4.3292 
  97   0.0000       0.161313         4.3895 
  98   0.0000       0.164741         4.4828 
  99   0.0000       0.172457         4.6928 
 100   0.0000       0.182227         4.9586 
 101   0.0000       0.185949         5.0599 
 102   0.0000       0.187970         5.1149 
 103   0.0000       0.188624         5.1327 
 104   0.0000       0.191320         5.2061 
 105   0.0000       0.196386         5.3439 
 106   0.0000       0.200885         5.4664 
 107   0.0000       0.204341         5.5604 
 108   0.0000       0.208860         5.6834 
 109   0.0000       0.212867         5.7924 
 110   0.0000       0.216562         5.8930 
 111   0.0000       0.217374         5.9151 
 112   0.0000       0.225821         6.1449 
 113   0.0000       0.228973         6.2307 
 114   0.0000       0.233881         6.3642 
 115   0.0000       0.242340         6.5944 
 116   0.0000       0.244421         6.6510 
 117   0.0000       0.252752         6.8777 
 118   0.0000       0.253764         6.9053 
 119   0.0000       0.263064         7.1583 
 120   0.0000       0.268338         7.3019 
 121   0.0000       0.276542         7.5251 
 122   0.0000       0.280829         7.6417 
 123   0.0000       0.286918         7.8074 
 124   0.0000       0.294760         8.0208 
 125   0.0000       0.311371         8.4728 
 126   0.0000       0.343832         9.3561 
 127   0.0000       0.359189         9.7740 
 128   0.0000       0.370648        10.0858 
 129   0.0000       0.401046        10.9130 
 130   0.0000       0.427467        11.6320 
 131   0.0000       0.435740        11.8571 
 132   0.0000       0.441761        12.0209 
 133   0.0000       0.463150        12.6030 
 134   0.0000       0.468336        12.7441 
 135   0.0000       0.492903        13.4126 
 136   0.0000       0.504490        13.7279 
 137   0.0000       0.514519        14.0008 
 138   0.0000       0.517755        14.0888 
 139   0.0000       0.521974        14.2036 
 140   0.0000       0.525061        14.2876 
 141   0.0000       0.530621        14.4389 
 142   0.0000       0.538807        14.6617 
 143   0.0000       0.545912        14.8550 
 144   0.0000       0.550395        14.9770 
 145   0.0000       0.555966        15.1286 
 146   0.0000       0.566283        15.4093 
 147   0.0000       0.574722        15.6390 
 148   0.0000       0.577549        15.7159 
 149   0.0000       0.581580        15.8256 
 150   0.0000       0.591820        16.1042 
 151   0.0000       0.603928        16.4337 
 152   0.0000       0.618192        16.8218 
 153   0.0000       0.622851        16.9486 
 154   0.0000       0.626864        17.0578 
 155   0.0000       0.628359        17.0985 
 156   0.0000       0.639285        17.3958 
 157   0.0000       0.642431        17.4814 
 158   0.0000       0.647101        17.6085 
 159   0.0000       0.655046        17.8247 
 160   0.0000       0.663335        18.0503 
 161   0.0000       0.666781        18.1440 
 162   0.0000       0.676171        18.3995 
 163   0.0000       0.682668        18.5763 
 164   0.0000       0.700941        19.0736 
 165   0.0000       0.706214        19.2171 
 166   0.0000       0.709067        19.2947 
 167   0.0000       0.717040        19.5116 
 168   0.0000       0.728524        19.8242 
 169   0.0000       0.729195        19.8424 
 170   0.0000       0.739932        20.1346 
 171   0.0000       0.749986        20.4082 
 172   0.0000       0.754101        20.5201 
 173   0.0000       0.761087        20.7102 
 174   0.0000       0.765626        20.8338 
 175   0.0000       0.766804        20.8658 
 176   0.0000       0.771470        20.9928 
 177   0.0000       0.779815        21.2198 
 178   0.0000       0.800136        21.7728 
 179   0.0000       0.804497        21.8915 
 180   0.0000       0.810370        22.0513 
 181   0.0000       0.813778        22.1440 
 182   0.0000       0.821989        22.3675 
 183   0.0000       0.823953        22.4209 
 184   0.0000       0.828999        22.5582 
 185   0.0000       0.834619        22.7111 
 186   0.0000       0.843972        22.9656 
 187   0.0000       0.848281        23.0829 
 188   0.0000       0.854317        23.2472 
 189   0.0000       0.860537        23.4164 
 190   0.0000       0.865702        23.5570 
 191   0.0000       0.874391        23.7934 
 192   0.0000       0.877504        23.8781 
 193   0.0000       0.882816        24.0226 
 194   0.0000       0.886103        24.1121 
 195   0.0000       0.891235        24.2517 
 196   0.0000       0.895630        24.3713 
 197   0.0000       0.900897        24.5147 
 198   0.0000       0.902418        24.5561 
 199   0.0000       0.907699        24.6997 
 200   0.0000       0.912486        24.8300 
 201   0.0000       0.915554        24.9135 
 202   0.0000       0.920048        25.0358 
 203   0.0000       0.926465        25.2104 
 204   0.0000       0.928771        25.2731 
 205   0.0000       0.934808        25.4374 
 206   0.0000       0.939903        25.5761 
 207   0.0000       0.949220        25.8296 
 208   0.0000       0.962955        26.2033 
 209   0.0000       0.966134        26.2898 
 210   0.0000       0.967172        26.3181 
 211   0.0000       0.976360        26.5681 
 212   0.0000       0.985492        26.8166 
 213   0.0000       0.992383        27.0041 
 214   0.0000       1.003064        27.2948 
 215   0.0000       1.008393        27.4398 
 216   0.0000       1.016276        27.6543 
 217   0.0000       1.022506        27.8238 
 218   0.0000       1.031383        28.0654 
 219   0.0000       1.047593        28.5064 
 220   0.0000       1.065819        29.0024 
 221   0.0000       1.071135        29.1471 
 222   0.0000       1.079894        29.3854 
 223   0.0000       1.090778        29.6816 
 224   0.0000       1.098415        29.8894 
 225   0.0000       1.115744        30.3609 
 226   0.0000       1.133082        30.8327 
 227   0.0000       1.159024        31.5386 
 228   0.0000       1.167957        31.7817 
 229   0.0000       1.183969        32.2174 
 230   0.0000       1.224551        33.3217 
 231   0.0000       1.230529        33.4844 
 232   0.0000       1.247594        33.9488 
 233   0.0000       1.273994        34.6671 
 234   0.0000       1.283515        34.9262 
 235   0.0000       1.298079        35.3225 
 236   0.0000       1.304036        35.4846 
 237   0.0000       1.308581        35.6083 
 238   0.0000       1.319176        35.8966 
 239   0.0000       1.340193        36.4685 
 240   0.0000       1.347875        36.6775 
 241   0.0000       1.349942        36.7338 
 242   0.0000       1.367170        37.2026 
 243   0.0000       1.375008        37.4159 
 244   0.0000       1.378070        37.4992 
 245   0.0000       1.385281        37.6954 
 246   0.0000       1.417277        38.5661 
 247   0.0000       1.428591        38.8739 
 248   0.0000       1.437600        39.1191 
 249   0.0000       1.477252        40.1981 
 250   0.0000       1.480230        40.2791 
 251   0.0000       1.482882        40.3513 
 252   0.0000       1.502607        40.8880 
 253   0.0000       1.524745        41.4904 
 254   0.0000       1.543958        42.0132 
 255   0.0000       1.549064        42.1522 
 256   0.0000       1.562221        42.5102 
 257   0.0000       1.577746        42.9326 
 258   0.0000       1.592971        43.3470 
 259   0.0000       1.617374        44.0110 
 260   0.0000       1.624983        44.2180 
 261   0.0000       1.626165        44.2502 
 262   0.0000       1.645021        44.7633 
 263   0.0000       1.711952        46.5846 
 264   0.0000       1.727450        47.0063 
 265   0.0000       1.728756        47.0418 
 266   0.0000       1.742462        47.4148 
 267   0.0000       1.744743        47.4769 
 268   0.0000       1.760947        47.9178 
 269   0.0000       1.763987        48.0005 
 270   0.0000       1.771063        48.1931 
 271   0.0000       1.774765        48.2938 
 272   0.0000       1.784375        48.5553 
 273   0.0000       1.792359        48.7726 
 274   0.0000       1.809504        49.2391 
 275   0.0000       1.813696        49.3532 
 276   0.0000       1.826220        49.6940 
 277   0.0000       1.834370        49.9157 
 278   0.0000       1.839445        50.0538 
 279   0.0000       1.852445        50.4076 
 280   0.0000       1.863786        50.7162 
 281   0.0000       1.867522        50.8179 
 282   0.0000       1.871764        50.9333 
 283   0.0000       1.877488        51.0890 
 284   0.0000       1.878933        51.1284 
 285   0.0000       1.887677        51.3663 
 286   0.0000       1.893570        51.5267 
 287   0.0000       1.896330        51.6018 
 288   0.0000       1.920859        52.2692 
 289   0.0000       1.931911        52.5700 
 290   0.0000       1.939360        52.7727 
 291   0.0000       1.947868        53.0042 
 292   0.0000       1.960916        53.3592 
 293   0.0000       1.965999        53.4975 
 294   0.0000       1.977332        53.8059 
 295   0.0000       1.985162        54.0190 
 296   0.0000       1.987685        54.0876 
 297   0.0000       1.988690        54.1150 
 298   0.0000       2.003213        54.5102 
 299   0.0000       2.031758        55.2869 
 300   0.0000       2.047410        55.7129 
 301   0.0000       2.050061        55.7850 
 302   0.0000       2.051762        55.8313 
 303   0.0000       2.058153        56.0052 
 304   0.0000       2.064170        56.1689 
 305   0.0000       2.071237        56.3612 
 306   0.0000       2.076530        56.5052 
 307   0.0000       2.082963        56.6803 
 308   0.0000       2.084495        56.7220 
 309   0.0000       2.092271        56.9336 
 310   0.0000       2.100346        57.1533 
 311   0.0000       2.109402        57.3998 
 312   0.0000       2.112247        57.4772 
 313   0.0000       2.112516        57.4845 
 314   0.0000       2.119476        57.6739 
 315   0.0000       2.123824        57.7922 
 316   0.0000       2.127607        57.8951 
 317   0.0000       2.143556        58.3291 
 318   0.0000       2.147062        58.4245 
 319   0.0000       2.160850        58.7997 
 320   0.0000       2.165005        58.9128 
 321   0.0000       2.167734        58.9870 
 322   0.0000       2.171618        59.0927 
 323   0.0000       2.183985        59.4292 
 324   0.0000       2.190334        59.6020 
 325   0.0000       2.198917        59.8356 
 326   0.0000       2.200871        59.8887 
 327   0.0000       2.210834        60.1599 
 328   0.0000       2.221527        60.4508 
 329   0.0000       2.224631        60.5353 
 330   0.0000       2.249716        61.2179 
 331   0.0000       2.264594        61.6227 
 332   0.0000       2.283773        62.1446 
 333   0.0000       2.300617        62.6030 
 334   0.0000       2.304872        62.7188 
 335   0.0000       2.315448        63.0065 
 336   0.0000       2.325823        63.2889 
 337   0.0000       2.341489        63.7152 
 338   0.0000       2.351826        63.9965 
 339   0.0000       2.355158        64.0871 
 340   0.0000       2.361607        64.2626 
 341   0.0000       2.366271        64.3895 
 342   0.0000       2.385247        64.9059 
 343   0.0000       2.388291        64.9887 
 344   0.0000       2.404276        65.4237 
 345   0.0000       2.422925        65.9311 
 346   0.0000       2.429803        66.1183 
 347   0.0000       2.434399        66.2434 
 348   0.0000       2.442650        66.4679 
 349   0.0000       2.446817        66.5813 
 350   0.0000       2.458904        66.9102 
 351   0.0000       2.469857        67.2082 
 352   0.0000       2.479236        67.4634 
 353   0.0000       2.483440        67.5778 
 354   0.0000       2.500240        68.0350 
 355   0.0000       2.505622        68.1814 
 356   0.0000       2.518123        68.5216 
 357   0.0000       2.529581        68.8334 
 358   0.0000       2.549059        69.3634 
 359   0.0000       2.556509        69.5661 
 360   0.0000       2.575465        70.0820 
 361   0.0000       2.583509        70.3009 
 362   0.0000       2.592403        70.5429 
 363   0.0000       2.603377        70.8415 
 364   0.0000       2.613987        71.1302 
 365   0.0000       2.619376        71.2769 
 366   0.0000       2.628774        71.5326 
 367   0.0000       2.638756        71.8042 
 368   0.0000       2.646485        72.0145 
 369   0.0000       2.663042        72.4651 
 370   0.0000       2.667546        72.5876 
 371   0.0000       2.676659        72.8356 
 372   0.0000       2.684797        73.0570 
 373   0.0000       2.687005        73.1171 
 374   0.0000       2.696315        73.3705 
 375   0.0000       2.715093        73.8814 
 376   0.0000       2.720003        74.0150 
 377   0.0000       2.735474        74.4360 
 378   0.0000       2.736892        74.4746 
 379   0.0000       2.743523        74.6551 
 380   0.0000       2.748272        74.7843 
 381   0.0000       2.750697        74.8503 
 382   0.0000       2.756902        75.0191 
 383   0.0000       2.773511        75.4711 
 384   0.0000       2.787549        75.8531 
 385   0.0000       2.791128        75.9505 
 386   0.0000       2.803143        76.2774 
 387   0.0000       2.808712        76.4289 
 388   0.0000       2.829403        76.9920 
 389   0.0000       2.834773        77.1381 
 390   0.0000       2.850745        77.5727 
 391   0.0000       2.854801        77.6831 
 392   0.0000       2.863639        77.9236 
 393   0.0000       2.882215        78.4291 
 394   0.0000       2.887848        78.5823 
 395   0.0000       2.891029        78.6689 
 396   0.0000       2.892138        78.6991 
 397   0.0000       2.895296        78.7850 
 398   0.0000       2.902630        78.9846 
 399   0.0000       2.906975        79.1028 
 400   0.0000       2.926081        79.6227 
 401   0.0000       2.935792        79.8870 
 402   0.0000       2.946653        80.1825 
 403   0.0000       2.947988        80.2188 
 404   0.0000       2.971233        80.8514 
 405   0.0000       2.977729        81.0281 
 406   0.0000       2.993884        81.4677 
 407   0.0000       3.005622        81.7871 
 408   0.0000       3.050961        83.0209 
 409   0.0000       3.075750        83.6954 
 410   0.0000       3.087958        84.0276 
 411   0.0000       3.106724        84.5383 
 412   0.0000       3.133857        85.2766 
 413   0.0000       3.171464        86.2999 
 414   0.0000       3.208809        87.3161 
 415   0.0000       3.237507        88.0970 
 416   0.0000       3.238445        88.1226 
 417   0.0000       3.248695        88.4015 
 418   0.0000       3.251149        88.4683 
 419   0.0000       3.287740        89.4639 
 420   0.0000       3.300093        89.8001 
 421   0.0000       3.336836        90.7999 
 422   0.0000       3.365398        91.5771 
 423   0.0000       3.416842        92.9770 
 424   0.0000       3.424503        93.1855 
 425   0.0000       3.430350        93.3446 
 426   0.0000       3.434840        93.4668 
 427   0.0000       3.437937        93.5510 
 428   0.0000       3.442018        93.6621 
 429   0.0000       3.450087        93.8816 
 430   0.0000       3.454283        93.9958 
 431   0.0000       3.458280        94.1046 
 432   0.0000       3.479909        94.6931 
 433   0.0000       3.486574        94.8745 
 434   0.0000       3.495571        95.1193 
 435   0.0000       3.499288        95.2205 
 436   0.0000       3.512701        95.5855 
 437   0.0000       3.517715        95.7219 
 438   0.0000       3.530023        96.0568 
 439   0.0000       3.534724        96.1847 
 440   0.0000       3.570134        97.1483 
 441   0.0000       3.576599        97.3242 
 442   0.0000       3.632422        98.8432 
 443   0.0000       3.654876        99.4542 

                    ********************************
                    * MULLIKEN POPULATION ANALYSIS *
                    ********************************

-----------------------
MULLIKEN ATOMIC CHARGES
-----------------------
   0 C :   -0.167532
   1 C :   -0.181273
   2 C :   -0.210192
   3 H :    0.081154
   4 H :    0.090936
   5 C :    0.062257
   6 H :    0.098864
   7 H :    0.091950
   8 C :    0.041982
   9 C :    0.016387
  10 H :    0.080854
  11 H :    0.083908
  12 C :   -0.313227
  13 H :    0.096355
  14 H :    0.095966
  15 H :    0.098189
  16 C :   -0.299997
  17 H :    0.096693
  18 H :    0.093064
  19 H :    0.101997
  20 C :   -0.345136
  21 H :    0.099655
  22 H :    0.107025
  23 H :    0.109099
  24 C :   -0.161198
  25 C :   -0.074834
  26 C :    0.127342
  27 C :   -0.132627
  28 C :   -0.074157
  29 C :   -0.114006
  30 C :    0.154020
  31 C :   -0.136557
  32 C :    0.030629
  33 O :   -0.542061
  34 H :    0.088915
  35 H :    0.084476
  36 C :   -0.373552
  37 H :    0.119689
  38 H :    0.119508
  39 H :    0.103137
  40 C :   -0.376174
  41 H :    0.118883
  42 H :    0.121022
  43 H :    0.099973
  44 H :    0.088544
  45 H :    0.078198
  46 H :    0.073439
  47 H :    0.073676
  48 H :    0.076280
  49 H :    0.095176
  50 H :    0.303280
Sum of atomic charges:    0.0000000

--------------------------------
MULLIKEN REDUCED ORBITAL CHARGES
--------------------------------
  0 C s       :     3.219730  s :     3.219730
      pz      :     1.009755  p :     2.909439
      px      :     0.958522
      py      :     0.941163
      dz2     :     0.006029  d :     0.038362
      dxz     :     0.009999
      dyz     :     0.006090
      dx2y2   :     0.008320
      dxy     :     0.007924
  1 C s       :     3.208130  s :     3.208130
      pz      :     0.986303  p :     2.934168
      px      :     1.000362
      py      :     0.947503
      dz2     :     0.009264  d :     0.038975
      dxz     :     0.007301
      dyz     :     0.006570
      dx2y2   :     0.008455
      dxy     :     0.007384
  2 C s       :     3.213251  s :     3.213251
      pz      :     0.978306  p :     2.957751
      px      :     0.974988
      py      :     1.004457
      dz2     :     0.006420  d :     0.039189
      dxz     :     0.011329
      dyz     :     0.006474
      dx2y2   :     0.008289
      dxy     :     0.006678
  3 H s       :     0.907541  s :     0.907541
      pz      :     0.002323  p :     0.011305
      px      :     0.006068
      py      :     0.002915
  4 H s       :     0.897687  s :     0.897687
      pz      :     0.005726  p :     0.011377
      px      :     0.003293
      py      :     0.002358
  5 C s       :     3.154737  s :     3.154737
      pz      :     0.953923  p :     2.742269
      px      :     0.877793
      py      :     0.910553
      dz2     :     0.004638  d :     0.040737
      dxz     :     0.005659
      dyz     :     0.009393
      dx2y2   :     0.009922
      dxy     :     0.011126
  6 H s       :     0.889643  s :     0.889643
      pz      :     0.004974  p :     0.011493
      px      :     0.003977
      py      :     0.002542
  7 H s       :     0.896588  s :     0.896588
      pz      :     0.002911  p :     0.011461
      px      :     0.002505
      py      :     0.006045
  8 C s       :     3.149209  s :     3.149209
      pz      :     0.945224  p :     2.768258
      px      :     0.917611
      py      :     0.905423
      dz2     :     0.004607  d :     0.040551
      dxz     :     0.005844
      dyz     :     0.007924
      dx2y2   :     0.010413
      dxy     :     0.011764
  9 C s       :     3.204459  s :     3.204459
      pz      :     0.910340  p :     2.730633
      px      :     0.908760
      py      :     0.911533
      dz2     :     0.010164  d :     0.048522
      dxz     :     0.009531
      dyz     :     0.009560
      dx2y2   :     0.009027
      dxy     :     0.010239
 10 H s       :     0.907784  s :     0.907784
      pz      :     0.004561  p :     0.011362
      px      :     0.003527
      py      :     0.003274
 11 H s       :     0.904764  s :     0.904764
      pz      :     0.005546  p :     0.011328
      px      :     0.003399
      py      :     0.002383
 12 C s       :     3.243023  s :     3.243023
      pz      :     1.022670  p :     3.038126
      px      :     1.035718
      py      :     0.979738
      dz2     :     0.008412  d :     0.032079
      dxz     :     0.004789
      dyz     :     0.004900
      dx2y2   :     0.003970
      dxy     :     0.010007
 13 H s       :     0.892376  s :     0.892376
      pz      :     0.006239  p :     0.011269
      px      :     0.002851
      py      :     0.002179
 14 H s       :     0.892647  s :     0.892647
      pz      :     0.002369  p :     0.011387
      px      :     0.005349
      py      :     0.003669
 15 H s       :     0.890495  s :     0.890495
      pz      :     0.003347  p :     0.011316
      px      :     0.004517
      py      :     0.003452
 16 C s       :     3.237447  s :     3.237447
      pz      :     0.963063  p :     3.030488
      px      :     1.027608
      py      :     1.039816
      dz2     :     0.006147  d :     0.032063
      dxz     :     0.006515
      dyz     :     0.007866
      dx2y2   :     0.003921
      dxy     :     0.007614
 17 H s       :     0.891951  s :     0.891951
      pz      :     0.003082  p :     0.011356
      px      :     0.002695
      py      :     0.005580
 18 H s       :     0.895650  s :     0.895650
      pz      :     0.003763  p :     0.011286
      px      :     0.004021
      py      :     0.003502
 19 H s       :     0.886604  s :     0.886604
      pz      :     0.002178  p :     0.011399
      px      :     0.005580
[...]
      dxz     :     0.015973
      dyz     :     0.013062
      dx2y2   :     0.017127
      dxy     :     0.020278
  1 C s       :     2.890250  s :     2.890250
      pz      :     1.057061  p :     3.150397
      px      :     1.058665
      py      :     1.034672
      dz2     :     0.019410  d :     0.082950
      dxz     :     0.014257
      dyz     :     0.014402
      dx2y2   :     0.017227
      dxy     :     0.017654
  2 C s       :     2.891706  s :     2.891706
      pz      :     1.058857  p :     3.144983
      px      :     1.037149
      py      :     1.048976
      dz2     :     0.012541  d :     0.084540
      dxz     :     0.021898
      dyz     :     0.016103
      dx2y2   :     0.016043
      dxy     :     0.017955
  3 H s       :     0.896384  s :     0.896384
      pz      :     0.006864  p :     0.038156
      px      :     0.020989
      py      :     0.010303
  4 H s       :     0.897459  s :     0.897459
      pz      :     0.021674  p :     0.038405
      px      :     0.009743
      py      :     0.006988
  5 C s       :     2.889584  s :     2.889584
      pz      :     0.976621  p :     3.032969
      px      :     1.003554
      py      :     1.052794
      dz2     :     0.008080  d :     0.097618
      dxz     :     0.010641
      dyz     :     0.020722
      dx2y2   :     0.026431
      dxy     :     0.031744
  6 H s       :     0.891452  s :     0.891452
      pz      :     0.018729  p :     0.037968
      px      :     0.011408
      py      :     0.007831
  7 H s       :     0.891792  s :     0.891792
      pz      :     0.009663  p :     0.038028
      px      :     0.007927
      py      :     0.020438
  8 C s       :     2.884102  s :     2.884102
      pz      :     0.998935  p :     3.057668
      px      :     1.005531
      py      :     1.053201
      dz2     :     0.007555  d :     0.097670
      dxz     :     0.010715
      dyz     :     0.016753
      dx2y2   :     0.028416
      dxy     :     0.034231
  9 C s       :     2.869304  s :     2.869304
      pz      :     1.014075  p :     3.034436
      px      :     1.012699
      py      :     1.007663
      dz2     :     0.023693  d :     0.110877
      dxz     :     0.017140
      dyz     :     0.025521
      dx2y2   :     0.017729
      dxy     :     0.026794
 10 H s       :     0.898302  s :     0.898302
      pz      :     0.012625  p :     0.038247
      px      :     0.014032
      py      :     0.011591
 11 H s       :     0.898993  s :     0.898993
      pz      :     0.021712  p :     0.038004
      px      :     0.009673
      py      :     0.006619
 12 C s       :     2.922389  s :     2.922389
      pz      :     1.068662  p :     3.203871
      px      :     1.085707
      py      :     1.049503
      dz2     :     0.018859  d :     0.063991
      dxz     :     0.004876
      dyz     :     0.012469
      dx2y2   :     0.006978
      dxy     :     0.020809
 13 H s       :     0.893586  s :     0.893586
      pz      :     0.023698  p :     0.038539
      px      :     0.007231
      py      :     0.007611
 14 H s       :     0.895934  s :     0.895934
      pz      :     0.006781  p :     0.039290
      px      :     0.018007
      py      :     0.014502
 15 H s       :     0.893532  s :     0.893532
      pz      :     0.008461  p :     0.038491
      px      :     0.018456
      py      :     0.011574
 16 C s       :     2.922298  s :     2.922298
      pz      :     1.036073  p :     3.204675
      px      :     1.086287
      py      :     1.082316
      dz2     :     0.014605  d :     0.063793
      dxz     :     0.008277
      dyz     :     0.018794
      dx2y2   :     0.006945
      dxy     :     0.015172
 17 H s       :     0.894109  s :     0.894109
      pz      :     0.014241  p :     0.038970
      px      :     0.007042
      py      :     0.017687
 18 H s       :     0.897882  s :     0.897882
      pz      :     0.009432  p :     0.038427
      px      :     0.014632
      py      :     0.014363
 19 H s       :     0.890849  s :     0.890849
      pz      :     0.006822  p :     0.039281
      px      :     0.021912
      py      :     0.010546
 20 C s       :     2.910196  s :     2.910196
      pz      :     1.080395  p :     3.222878
      px      :     1.071072
      py      :     1.071411
      dz2     :     0.003573  d :     0.065978
      dxz     :     0.017712
      dyz     :     0.019775
      dx2y2   :     0.004829
      dxy     :     0.020090
 21 H s       :     0.891314  s :     0.891314
      pz      :     0.014375  p :     0.038135
      px      :     0.010776
      py      :     0.012984
 22 H s       :     0.887945  s :     0.887945
      pz      :     0.013897  p :     0.038316
      px      :     0.010833
      py      :     0.013586
 23 H s       :     0.880773  s :     0.880773
      pz      :     0.011513  p :     0.040530
      px      :     0.016539
      py      :     0.012479
 24 C s       :     2.902950  s :     2.902950
      pz      :     1.000020  p :     3.094583
      px      :     1.054047
      py      :     1.040515
      dz2     :     0.005549  d :     0.082704
      dxz     :     0.017385
      dyz     :     0.007972
      dx2y2   :     0.029287
      dxy     :     0.022511
 25 C s       :     2.903480  s :     2.903480
      pz      :     1.001366  p :     3.083998
      px      :     1.048261
      py      :     1.034371
      dz2     :     0.006239  d :     0.085951
      dxz     :     0.018625
      dyz     :     0.008231
      dx2y2   :     0.027939
      dxy     :     0.024918
 26 C s       :     2.880753  s :     2.880753
      pz      :     0.970880  p :     3.035360
      px      :     1.053049
      py      :     1.011431
      dz2     :     0.009991  d :     0.100599
      dxz     :     0.019153
      dyz     :     0.012433
      dx2y2   :     0.028069
      dxy     :     0.030952
 27 C s       :     2.900249  s :     2.900249
      pz      :     1.010406  p :     3.095049
      px      :     1.043512
      py      :     1.041131
      dz2     :     0.006407  d :     0.084982
      dxz     :     0.018018
      dyz     :     0.008026
      dx2y2   :     0.029224
      dxy     :     0.023308
 28 C s       :     2.897704  s :     2.897704
      pz      :     1.005799  p :     3.103967
      px      :     1.050025
      py      :     1.048143
      dz2     :     0.006586  d :     0.084739
      dxz     :     0.017733
      dyz     :     0.008703
      dx2y2   :     0.027588
      dxy     :     0.024129
 29 C s       :     2.904155  s :     2.904155
      pz      :     0.999641  p :     3.078658
      px      :     1.038276
      py      :     1.040741
      dz2     :     0.006754  d :     0.083841
      dxz     :     0.016950
      dyz     :     0.008547
      dx2y2   :     0.028493
      dxy     :     0.023098
 30 C s       :     2.878425  s :     2.878425
      pz      :     0.974775  p :     3.038984
      px      :     1.047012
      py      :     1.017197
      dz2     :     0.011631  d :     0.102770
      dxz     :     0.018437
      dyz     :     0.013656
      dx2y2   :     0.030406
      dxy     :     0.028641
 31 C s       :     2.917842  s :     2.917842
      pz      :     1.009364  p :     3.085096
      px      :     1.028903
      py      :     1.046829
      dz2     :     0.007612  d :     0.077943
      dxz     :     0.015221
      dyz     :     0.008940
      dx2y2   :     0.026911
      dxy     :     0.019259
 32 C s       :     2.885082  s :     2.885082
      pz      :     1.072506  p :     2.976232
      px      :     1.010801
      py      :     0.892925
      dz2     :     0.021076  d :     0.138572
      dxz     :     0.013140
      dyz     :     0.037436
      dx2y2   :     0.037310
      dxy     :     0.029610
 33 O s       :     3.510268  s :     3.510268
      pz      :     1.877991  p :     4.715966
      px      :     1.317723
      py      :     1.520252
      dz2     :     0.005956  d :     0.044372
      dxz     :     0.002658
      dyz     :     0.006539
      dx2y2   :     0.019628
      dxy     :     0.009591
 34 H s       :     0.905813  s :     0.905813
      pz      :     0.022186  p :     0.037458
      px      :     0.007224
      py      :     0.008048
 35 H s       :     0.908061  s :     0.908061
      pz      :     0.015906  p :     0.038482
      px      :     0.007810
      py      :     0.014766
 36 C s       :     2.905530  s :     2.905530
      pz      :     1.081706  p :     3.227947
      px      :     1.093113
      py      :     1.053128
      dz2     :     0.012491  d :     0.064533
      dxz     :     0.010674
      dyz     :     0.014795
      dx2y2   :     0.012809
      dxy     :     0.013764
 37 H s       :     0.881909  s :     0.881909
      pz      :     0.011764  p :     0.038823
      px      :     0.012068
      py      :     0.014991
 38 H s       :     0.880722  s :     0.880722
      pz      :     0.021488  p :     0.038952
      px      :     0.010561
      py      :     0.006903
 39 H s       :     0.886740  s :     0.886740
      pz      :     0.007444  p :     0.039644
      px      :     0.022592
      py      :     0.009608
 40 C s       :     2.906428  s :     2.906428
      pz      :     1.083372  p :     3.227982
      px      :     1.091568
      py      :     1.053041
      dz2     :     0.014252  d :     0.064079
      dxz     :     0.007986
      dyz     :     0.014577
      dx2y2   :     0.017948
      dxy     :     0.009316
 41 H s       :     0.881151  s :     0.881151
      pz      :     0.011300  p :     0.038860
      px      :     0.009774
      py      :     0.017786
 42 H s       :     0.881476  s :     0.881476
      pz      :     0.022557  p :     0.039047
      px      :     0.009813
      py      :     0.006677
 43 H s       :     0.887981  s :     0.887981
      pz      :     0.007107  p :     0.039790
      px      :     0.025236
      py      :     0.007447
 44 H s       :     0.888973  s :     0.888973
      pz      :     0.012265  p :     0.042180
      px      :     0.006489
      py      :     0.023426
 45 H s       :     0.888937  s :     0.888937
      pz      :     0.012258  p :     0.039815
      px      :     0.005564
      py      :     0.021993
 46 H s       :     0.890637  s :     0.890637
      pz      :     0.012091  p :     0.039719
      px      :     0.005654
      py      :     0.021974
 47 H s       :     0.889929  s :     0.889929
      pz      :     0.012116  p :     0.041308
      px      :     0.006831
      py      :     0.022361
 48 H s       :     0.889899  s :     0.889899
      pz      :     0.011788  p :     0.039736
      px      :     0.006073
      py      :     0.021875
 49 H s       :     0.883049  s :     0.883049
      pz      :     0.012076  p :     0.041128
      px      :     0.007573
      py      :     0.021479
 50 H s       :     0.719156  s :     0.719156
      pz      :     0.032285  p :     0.117609
      px      :     0.062702
      py      :     0.022622


                      *****************************
                      * MAYER POPULATION ANALYSIS *
                      *****************************

  NA   - Mulliken gross atomic population
  ZA   - Total nuclear charge
  QA   - Mulliken gross atomic charge
  VA   - Mayer's total valence
  BVA  - Mayer's bonded valence
  FA   - Mayer's free valence

  ATOM       NA         ZA         QA         VA         BVA        FA
  0 C      6.1696     6.0000    -0.1696     3.8874     3.8874    -0.0000
  1 C      6.1845     6.0000    -0.1845     3.9101     3.9101    -0.0000
  2 C      6.2139     6.0000    -0.2139     3.8944     3.8944    -0.0000
  3 H      0.9158     1.0000     0.0842     0.9529     0.9529    -0.0000
  4 H      0.9057     1.0000     0.0943     0.9552     0.9552    -0.0000
  5 C      5.9438     6.0000     0.0562     3.9297     3.9297    -0.0000
  6 H      0.9001     1.0000     0.0999     0.9500     0.9500    -0.0000
  7 H      0.9074     1.0000     0.0926     0.9520     0.9520    -0.0000
  8 C      5.9266     6.0000     0.0734     3.9246     3.9246    -0.0000
  9 C      5.9896     6.0000     0.0104     3.9453     3.9453    -0.0000
 10 H      0.9185     1.0000     0.0815     0.9579     0.9579    -0.0000
 11 H      0.9158     1.0000     0.0842     0.9561     0.9561    -0.0000
 12 C      6.3096     6.0000    -0.3096     3.8806     3.8806     0.0000
 13 H      0.9013     1.0000     0.0987     0.9593     0.9593     0.0000
 14 H      0.9021     1.0000     0.0979     0.9599     0.9599     0.0000
 15 H      0.9057     1.0000     0.0943     0.9594     0.9594    -0.0000
 16 C      6.3014     6.0000    -0.3014     3.8695     3.8695    -0.0000
 17 H      0.9000     1.0000     0.1000     0.9615     0.9615     0.0000
 18 H      0.9081     1.0000     0.0919     0.9582     0.9582    -0.0000
 19 H      0.8982     1.0000     0.1018     0.9654     0.9654    -0.0000
 20 C      6.3594     6.0000    -0.3594     3.8876     3.8876    -0.0000
 21 H      0.9020     1.0000     0.0980     0.9553     0.9553    -0.0000
 22 H      0.8926     1.0000     0.1074     0.9516     0.9516     0.0000
 23 H      0.8820     1.0000     0.1180     0.9674     0.9674    -0.0000
 24 C      6.1491     6.0000    -0.1491     3.8788     3.8788    -0.0000
 25 C      6.0855     6.0000    -0.0855     3.9453     3.9453     0.0000
 26 C      5.8744     6.0000     0.1256     3.9194     3.9194    -0.0000
 27 C      6.1296     6.0000    -0.1296     3.9455     3.9455    -0.0000
 28 C      6.0775     6.0000    -0.0775     3.8981     3.8981    -0.0000
 29 C      6.1084     6.0000    -0.1084     3.9502     3.9502     0.0000
 30 C      5.8485     6.0000     0.1515     3.9279     3.9279     0.0000
 31 C      6.1328     6.0000    -0.1328     3.9025     3.9025     0.0000
 32 C      5.9743     6.0000     0.0257     3.8533     3.8533     0.0000
 33 O      8.5381     8.0000    -0.5381     1.8631     1.8631     0.0000
 34 H      0.9112     1.0000     0.0888     0.9406     0.9406     0.0000
 35 H      0.9137     1.0000     0.0863     0.9515     0.9515     0.0000
 36 C      6.3791     6.0000    -0.3791     3.8920     3.8920     0.0000
 37 H      0.8805     1.0000     0.1195     0.9511     0.9511     0.0000
 38 H      0.8786     1.0000     0.1214     0.9517     0.9517     0.0000
 39 H      0.8949     1.0000     0.1051     0.9595     0.9595     0.0000
 40 C      6.3784     6.0000    -0.3784     3.8889     3.8889     0.0000
 41 H      0.8802     1.0000     0.1198     0.9502     0.9502     0.0000
 42 H      0.8798     1.0000     0.1202     0.9527     0.9527     0.0000
 43 H      0.8986     1.0000     0.1014     0.9636     0.9636     0.0000
 44 H      0.9235     1.0000     0.0765     0.9696     0.9696    -0.0000
 45 H      0.9236     1.0000     0.0764     0.9636     0.9636     0.0000
 46 H      0.9307     1.0000     0.0693     0.9622     0.9622     0.0000
 47 H      0.9275     1.0000     0.0725     0.9673     0.9673    -0.0000
 48 H      0.9263     1.0000     0.0737     0.9618     0.9618    -0.0000
 49 H      0.9069     1.0000     0.0931     0.9645     0.9645     0.0000
 50 H      0.6946     1.0000     0.3054     0.9010     0.9010    -0.0000

  Mayer bond orders larger than 0.1
B(  0-C ,  1-C ) :   1.0033 B(  0-C ,  9-C ) :   0.9831 B(  0-C , 10-H ) :   0.9471 
B(  0-C , 11-H ) :   0.9484 B(  1-C ,  2-C ) :   1.0036 B(  1-C ,  3-H ) :   0.9501 
B(  1-C ,  4-H ) :   0.9514 B(  2-C ,  5-C ) :   0.9894 B(  2-C ,  6-H ) :   0.9361 
B(  2-C ,  7-H ) :   0.9439 B(  5-C ,  8-C ) :   1.8203 B(  5-C , 20-C ) :   1.0017 
B(  8-C ,  9-C ) :   0.9629 B(  8-C , 24-C ) :   1.0330 B(  9-C , 12-C ) :   0.9861 
B(  9-C , 16-C ) :   0.9896 B( 12-C , 13-H ) :   0.9594 B( 12-C , 14-H ) :   0.9534 
B( 12-C , 15-H ) :   0.9571 B( 16-C , 17-H ) :   0.9581 B( 16-C , 18-H ) :   0.9575 
B( 16-C , 19-H ) :   0.9542 B( 20-C , 21-H ) :   0.9544 B( 20-C , 22-H ) :   0.9480 
B( 20-C , 23-H ) :   0.9498 B( 24-C , 25-C ) :   1.7106 B( 24-C , 44-H ) :   0.9233 
B( 25-C , 26-C ) :   1.1331 B( 25-C , 45-H ) :   0.9381 B( 26-C , 27-C ) :   1.6268 
B( 26-C , 36-C ) :   1.0239 B( 27-C , 28-C ) :   1.1559 B( 27-C , 46-H ) :   0.9381 
B( 28-C , 29-C ) :   1.6682 B( 28-C , 47-H ) :   0.9302 B( 29-C , 30-C ) :   1.1259 
B( 29-C , 48-H ) :   0.9397 B( 30-C , 31-C ) :   1.7412 B( 30-C , 40-C ) :   1.0171 
B( 31-C , 32-C ) :   1.0079 B( 31-C , 49-H ) :   0.9360 B( 32-C , 33-O ) :   0.9427 
B( 32-C , 34-H ) :   0.9299 B( 32-C , 35-H ) :   0.9351 B( 33-O , 50-H ) :   0.8822 
B( 36-C , 37-H ) :   0.9454 B( 36-C , 38-H ) :   0.9448 B( 36-C , 39-H ) :   0.9531 
B( 40-C , 41-H ) :   0.9468 B( 40-C , 42-H ) :   0.9472 B( 40-C , 43-H ) :   0.9523 


-------
TIMINGS
-------

Total SCF time: 0 days 0 hours 10 min 52 sec 

Total time                  ....     652.028 sec
Sum of individual times     ....     651.187 sec  ( 99.9%)

Fock matrix formation       ....     627.983 sec  ( 96.3%)
  XC integration            ....      26.175 sec  (  4.2% of F)
    Basis function eval.    ....       9.783 sec  ( 37.4% of XC)
    Density eval.           ....       7.974 sec  ( 30.5% of XC)
    XC-Functional eval.     ....       1.355 sec  (  5.2% of XC)
    XC-Potential eval.      ....       6.319 sec  ( 24.1% of XC)
Diagonalization             ....       0.246 sec  (  0.0%)
Density matrix formation    ....       0.090 sec  (  0.0%)
Population analysis         ....       0.413 sec  (  0.1%)
Initial guess               ....       0.240 sec  (  0.0%)
Orbital Transformation      ....       0.000 sec  (  0.0%)
Orbital Orthonormalization  ....       0.222 sec  (  0.0%)
DIIS solution               ....       0.081 sec  (  0.0%)
SOSCF solution              ....       1.160 sec  (  0.2%)
Grid generation             ....      20.974 sec  (  3.2%)

-------------------------   --------------------
FINAL SINGLE POINT ENERGY      -854.805006234363
-------------------------   --------------------

                                *** OPTIMIZATION RUN DONE ***

                            ***************************************
                            *     ORCA property calculations      *
                            ***************************************

                                    ---------------------
                                    Active property flags
                                    ---------------------
   (+) Dipole Moment


------------------------------------------------------------------------------
                       ORCA ELECTRIC PROPERTIES CALCULATION
------------------------------------------------------------------------------

Dipole Moment Calculation                       ... on
Quadrupole Moment Calculation                   ... off
Polarizability Calculation                      ... off
GBWName                                         ... retinol.gbw
Electron density file                           ... retinol.scfp.tmp
The origin for moment calculation is the CENTER OF MASS  = ( 0.975778,  5.207761  0.064991)

-------------
DIPOLE MOMENT
-------------
                                X             Y             Z
Electronic contribution:     15.02021      -4.75456       0.57465
Nuclear contribution   :    -14.67227       5.32066      -0.45210
                        -----------------------------------------
Total Dipole Moment    :      0.34794       0.56610       0.12255
                        -----------------------------------------
Magnitude (a.u.)       :      0.67569
Magnitude (Debye)      :      1.71746


Timings for individual modules:

Sum of individual times         ...    14758.585 sec (= 245.976 min)
GTO integral calculation        ...       11.475 sec (=   0.191 min)   0.1 %
SCF iterations                  ...    10261.837 sec (= 171.031 min)  69.5 %
SCF Gradient evaluation         ...     4477.443 sec (=  74.624 min)  30.3 %
Geometry relaxation             ...        7.830 sec (=   0.131 min)   0.1 %
                             ****ORCA TERMINATED NORMALLY****
TOTAL RUN TIME: 0 days 4 hours 6 minutes 5 seconds 684 msec
